#BIOSYM hessian 1
@Type: Hessian Update
@Units
 distance: 	A
 energy: 	Kcal/Mol
#header
@natom 92

#label
P1      P2      P3      P4      A5      A6      A7      A8      A9      A10     P11     P12     P13     P14     A15     A16     A17     A18     A19     A20     O21     O22     O23     P24     P25     P26     P27     A28     A29     A30     A31     A32     A33     P34     P35     P36     P37     A38     A39     A40     A41     A42     A43     O44     O45     O46     P47     P48     P49     P50     A51     A52     A53     A54     A55     A56     P57     P58     P59     P60     A61     A62     A63     A64     A65     A66     O67     O68     O69     P70     P71     P72     P73     A74     A75     A76     A77     A78     A79     P80     P81     P82     P83     A84     A85     A86     A87     A88     A89     O90     O91     O92

#element
Pd Pd Pd Pd Ag Ag Ag Ag Ag Ag Pd Pd Pd Pd Ag Ag Ag Ag Ag Ag O  O  O  Pd Pd Pd Pd Ag Ag Ag Ag Ag Ag Pd Pd Pd Pd Ag Ag Ag Ag Ag Ag O  O  O  Pd Pd Pd Pd Ag Ag Ag Ag Ag Ag Pd Pd Pd Pd Ag Ag Ag Ag Ag Ag O  O  O  Pd Pd Pd Pd Ag Ag Ag Ag Ag Ag Pd Pd Pd Pd Ag Ag Ag Ag Ag Ag O  O  O 

#matrix
276
 1.660288110155E-01
 -7.491405180930E-03 3.380205594535E-04
 8.513546617236E+00 -3.841407213986E-01 4.365536051274E+02
 8.473301808345E-03 -3.823248307228E-04 4.344899509068E-01 3.675112896632E+03
 3.087105117189E-03 -1.392936269767E-04 1.582991118634E-01 -3.774150249058E+02 4.190279575300E+03
 1.065936128494E-03 -4.809622731569E-05 5.465856718145E-02 -1.096725037002E+02 -2.355670264701E+02 4.459481507172E+03
 0.000000000000E+00 0.000000000000E+00 0.000000000000E+00 0.000000000000E+00 0.000000000000E+00 0.000000000000E+00 0.000000000000E+00
 0.000000000000E+00 0.000000000000E+00 0.000000000000E+00 0.000000000000E+00 0.000000000000E+00 0.000000000000E+00 0.000000000000E+00 0.000000000000E+00
 0.000000000000E+00 0.000000000000E+00 0.000000000000E+00 0.000000000000E+00 0.000000000000E+00 0.000000000000E+00 0.000000000000E+00 0.000000000000E+00 0.000000000000E+00
 -2.897489343614E+00 1.307379517306E-01 -1.485760841683E+02 -3.219892000822E-01 5.736381899326E-02 -2.987893235081E-01 0.000000000000E+00 0.000000000000E+00 0.000000000000E+00 7.622613049573E+02
 -2.022544191322E+00 9.125945033790E-02 -1.037110616701E+02 6.665340214504E-02 -7.750878090648E-03 5.124271188847E-01 0.000000000000E+00 0.000000000000E+00 0.000000000000E+00 -7.081280642403E+00 4.651149694928E+02
 2.169883700668E+00 -9.790757337702E-02 1.112662671414E+02 3.825125203049E-01 -1.310299794054E-01 3.025221156737E-01 0.000000000000E+00 0.000000000000E+00 0.000000000000E+00 -3.988588017112E-01 4.061833785574E+00 4.138960113384E+02
 -1.854560919356E-03 8.367985769839E-05 -9.509729513126E-02 -4.313548823743E+02 -3.377493832860E+02 -4.278548323112E+02 0.000000000000E+00 0.000000000000E+00 0.000000000000E+00 3.457022661987E-01 -8.482793552847E-02 -6.495808463184E-02 2.550100934083E+03
 1.310452838193E-03 -5.912909404912E-05 6.719677903739E-02 -3.390474817941E+02 -2.645012134563E+02 -3.353486628242E+02 0.000000000000E+00 0.000000000000E+00 0.000000000000E+00 3.656122517312E-01 -6.023372620532E-01 -5.918032042014E-01 1.443733879672E+03 4.018253165170E+03
 8.760291436845E-04 -3.952741229377E-05 4.492060689465E-02 -4.287001501258E+02 -3.351945315658E+02 -4.228622828298E+02 0.000000000000E+00 0.000000000000E+00 0.000000000000E+00 1.792711160437E-01 1.649109199551E-01 1.934260717058E-01 3.855667494268E+02 -2.642383764087E+02 2.394827766172E+03
 -2.377817372601E-03 1.072897726332E-04 -1.219285913396E-01 -1.346039905638E-03 4.793938290241E-03 -1.313608655288E-02 0.000000000000E+00 0.000000000000E+00 0.000000000000E+00 -3.185991678790E-01 -1.217006943617E-02 -2.777335808968E-01 -6.933685443150E-03 -1.568253947413E-02 -7.445928518462E-03 8.382486523385E-01
 -1.249388172228E-03 5.637378819478E-05 -6.406553406138E-02 -7.072563085915E-04 2.518902362827E-03 -6.902157986414E-03 0.000000000000E+00 0.000000000000E+00 0.000000000000E+00 -1.674031137194E-01 -6.394578904143E-03 -1.459309091612E-01 -3.643200139102E-03 -8.240153156943E-03 -3.912350514978E-03 4.404450752549E-01 2.314252027427E-01
 6.393598966405E-02 -2.884863183007E-03 3.278479350630E+00 3.619302074496E-02 -1.289019049599E-01 3.532099242561E-01 0.000000000000E+00 0.000000000000E+00 0.000000000000E+00 8.566660055226E+00 3.272351538211E-01 7.467844907765E+00 1.864365387919E-01 4.216802742202E-01 2.002099968993E-01 -2.253926554216E+01 -1.184291615645E+01 6.060474893252E+02
 2.671313997339E-03 -1.205326677771E-04 1.369783720459E-01 -3.555172005346E-01 -8.438732588273E-02 1.049178857443E-01 0.000000000000E+00 0.000000000000E+00 0.000000000000E+00 -5.576236550956E+02 4.028140244525E+02 -3.895166079952E+02 -5.014064289050E+02 -3.275921466630E+02 4.505933064668E+02 -1.008391447849E-02 -5.298440336233E-03 2.711415347953E-01 4.487019068074E+03
 -2.805932118961E-03 1.266067876096E-04 -1.438812562317E-01 -4.636788670689E-03 -1.763352432850E-01 -3.625330698917E-01 0.000000000000E+00 0.000000000000E+00 0.000000000000E+00 4.026747383773E+02 -2.911550939140E+02 2.809810776182E+02 -3.265346858162E+02 -2.137458460463E+02 2.937785924655E+02 1.729328574266E-03 9.086495420053E-04 -4.649908572631E-02 -2.232302792757E+01 4.356478269842E+03
 7.733211092935E-03 -3.489311119708E-04 3.965399302564E-01 1.201970722473E+00 -2.430933916955E-01 -3.821166935964E-01 0.000000000000E+00 0.000000000000E+00 0.000000000000E+00 -3.897343537236E+02 2.815492025484E+02 -2.717965740561E+02 4.511285810000E+02 2.945319016281E+02 -4.045951490410E+02 -1.944413775773E-04 -1.021662807804E-04 5.228240843981E-03 -3.900448949086E+02 1.432948436504E+01 4.602473026261E+03
 0.000000000000E+00 0.000000000000E+00 0.000000000000E+00 0.000000000000E+00 0.000000000000E+00 0.000000000000E+00 0.000000000000E+00 0.000000000000E+00 0.000000000000E+00 0.000000000000E+00 0.000000000000E+00 0.000000000000E+00 0.000000000000E+00 0.000000000000E+00 0.000000000000E+00 0.000000000000E+00 0.000000000000E+00 0.000000000000E+00 0.000000000000E+00 0.000000000000E+00 0.000000000000E+00 0.000000000000E+00
 0.000000000000E+00 0.000000000000E+00 0.000000000000E+00 0.000000000000E+00 0.000000000000E+00 0.000000000000E+00 0.000000000000E+00 0.000000000000E+00 0.000000000000E+00 0.000000000000E+00 0.000000000000E+00 0.000000000000E+00 0.000000000000E+00 0.000000000000E+00 0.000000000000E+00 0.000000000000E+00 0.000000000000E+00 0.000000000000E+00 0.000000000000E+00 0.000000000000E+00 0.000000000000E+00 0.000000000000E+00 0.000000000000E+00
 0.000000000000E+00 0.000000000000E+00 0.000000000000E+00 0.000000000000E+00 0.000000000000E+00 0.000000000000E+00 0.000000000000E+00 0.000000000000E+00 0.000000000000E+00 0.000000000000E+00 0.000000000000E+00 0.000000000000E+00 0.000000000000E+00 0.000000000000E+00 0.000000000000E+00 0.000000000000E+00 0.000000000000E+00 0.000000000000E+00 0.000000000000E+00 0.000000000000E+00 0.000000000000E+00 0.000000000000E+00 0.000000000000E+00 0.000000000000E+00
 -2.829068589805E+00 1.276507309860E-01 -1.450676372091E+02 -5.486850259180E+02 -3.964094457831E+02 3.947247170309E+02 0.000000000000E+00 0.000000000000E+00 0.000000000000E+00 3.023816883036E+02 1.019400228843E+00 -2.424398721167E+00 -1.482092015702E+00 1.144480457813E-01 3.656615814908E+01 -3.645711359387E+00 -1.915583889772E+00 9.802778231739E+01 -5.641186790895E+02 -3.986996875998E+02 -3.950906940998E+02 0.000000000000E+00 0.000000000000E+00 0.000000000000E+00 7.876368686674E+02
 2.292068017855E+00 -1.034206660818E-01 1.175315766012E+02 -3.973636368759E+02 -2.871772351071E+02 2.859870911299E+02 0.000000000000E+00 0.000000000000E+00 0.000000000000E+00 -4.690853207668E+00 1.405323818857E+01 1.051278426408E+02 1.056248506859E-01 -3.807499011086E-01 -1.159216801349E+01 1.842512369384E+00 9.681202551621E-01 -4.954243044996E+01 -3.978587760824E+02 -2.809106524420E+02 -2.785858843989E+02 0.000000000000E+00 0.000000000000E+00 0.000000000000E+00 1.747194379450E+00 5.173208160073E+02
 3.179241840838E+00 -1.434509387389E-01 1.630236550746E+02 3.962429960296E+02 2.859821198813E+02 -2.856321612211E+02 0.000000000000E+00 0.000000000000E+00 0.000000000000E+00 -7.045593487795E-01 -1.192923608734E+02 1.546201961291E+02 3.591128333446E+01 -1.232573469431E+01 -1.118940457583E+03 -2.048360497464E+00 -1.076280040460E+00 5.507738193149E+01 -3.940460562245E+02 -2.777519348862E+02 -2.755133102384E+02 0.000000000000E+00 0.000000000000E+00 0.000000000000E+00 -4.988780767865E+00 -3.723897987886E+01 1.028913420339E+03
 2.999897070091E-04 -1.353587025989E-05 1.538272989905E-02 2.396493434472E-01 4.516385844524E-01 -4.741238120677E-02 0.000000000000E+00 0.000000000000E+00 0.000000000000E+00 -1.745435466493E-02 -1.872128242873E-01 -5.795518524077E-02 -9.893440109815E-02 -1.226329235541E+01 6.316360288578E-01 -1.363989880186E-02 -7.166878512115E-03 3.667566899221E-01 -4.843959940413E+02 3.486787369846E+02 4.328767261947E+02 0.000000000000E+00 0.000000000000E+00 0.000000000000E+00 -2.533470592110E-01 -5.592842143325E-01 -2.631066920556E-01 3.036305331193E+03
 -8.411244519292E-04 3.795247366074E-05 -4.313078066750E-02 6.180987336086E-01 -7.388229249220E-01 -4.481816932952E-01 0.000000000000E+00 0.000000000000E+00 0.000000000000E+00 -4.831116234625E-01 5.462227642683E-01 3.283115036853E-01 -1.244651417720E+01 -1.120083953043E+03 1.583583140654E+01 2.090481915045E-02 1.098412102211E-02 -5.620996450496E-01 3.473436057188E+02 -2.507849649262E+02 -3.102603278964E+02 0.000000000000E+00 0.000000000000E+00 0.000000000000E+00 2.533810166707E-01 4.599204808935E-01 6.652316557339E-01 -1.104124168815E+03 4.298349566078E+03
 6.014818366046E-03 -2.713953150309E-04 3.084250031083E-01 9.212029128642E-03 4.727067467382E-01 1.491251138049E-01 0.000000000000E+00 0.000000000000E+00 0.000000000000E+00 -1.330060118036E-01 5.563356162901E-02 -2.717723578580E-02 1.890294036218E-01 1.628191778165E+01 -3.896607277157E-01 -1.123962192902E-02 -5.905689335204E-03 3.022167975397E-01 4.329590595429E+02 -3.102590314180E+02 -3.860472335294E+02 0.000000000000E+00 0.000000000000E+00 0.000000000000E+00 -1.002633257964E-01 -1.194992413753E-01 4.532452086453E-01 -6.971694963300E-01 6.563432556636E+00 1.628814855246E+03
 6.487103241261E-04 -2.927053354991E-05 3.326426029163E-02 1.192761801727E-05 3.177836746335E-04 7.254190708890E-04 0.000000000000E+00 0.000000000000E+00 0.000000000000E+00 -4.871109196740E-01 3.187413669865E-01 -3.430819429523E-01 3.441072900155E-04 5.486235491338E-04 2.917849597214E-04 7.331794524089E-04 3.852380533994E-04 -1.971411027241E-02 -1.110506405036E-02 -4.113267075560E-02 3.531292580389E+00 0.000000000000E+00 0.000000000000E+00 0.000000000000E+00 -4.697771484423E-01 -3.002990406953E-01 -7.291518874984E-01 -1.618290547941E-04 2.651281407009E-04 -5.047773326276E-05 4.520140296089E-03
 2.346441952963E-03 -1.058740786955E-04 1.203197374540E-01 4.314323708732E-05 1.149451331966E-03 2.623904195924E-03 0.000000000000E+00 0.000000000000E+00 0.000000000000E+00 -1.761922779954E+00 1.152915388929E+00 -1.240957380063E+00 1.244666150027E-03 1.984419338178E-03 1.055411707307E-03 2.651974174297E-03 1.393439716859E-03 -7.130766027322E-02 -4.016798748071E-02 -1.487804659628E-01 1.277299397073E+01 0.000000000000E+00 0.000000000000E+00 0.000000000000E+00 -1.699225014082E+00 -1.086207882495E+00 -2.637406119925E+00 -5.853498383714E-04 9.589916625573E-04 -1.825823740017E-04 1.634974260400E-02 5.913844830180E-02
 -2.058311441394E-01 9.287330856442E-03 -1.055451177535E+01 -3.784547851406E-03 -1.008304861291E-01 -2.301702806145E-01 0.000000000000E+00 0.000000000000E+00 0.000000000000E+00 1.545568093962E+02 -1.011343550602E+02 1.088574456505E+02 -1.091827809370E-01 -1.740743265836E-01 -9.258127991567E-02 -2.326325941430E-01 -1.222332778564E-01 6.255146129402E+00 3.523557363306E+00 1.305110211486E+01 -1.120453868360E+03 0.000000000000E+00 0.000000000000E+00 0.000000000000E+00 1.490569278124E+02 9.528273688807E+01 2.313546766153E+02 5.134720115351E-02 -8.412326197759E-02 1.601622358183E-02 -1.434208173067E+00 -5.187656341219E+00 4.550639911492E+02
 -1.665162392302E-03 7.513398485763E-05 -8.538540730016E-02 7.402955754099E-02 9.946813450486E-02 -3.959339983735E-01 0.000000000000E+00 0.000000000000E+00 0.000000000000E+00 -5.223354580431E+02 -3.809593248382E+02 -4.090980639997E+02 -6.960246799033E-02 2.139914618091E-01 -2.492298754474E-01 -3.700403520541E-05 -1.944321058582E-05 9.949837358432E-04 -7.758964925352E-01 4.032365188616E+01 7.538160645025E-01 0.000000000000E+00 0.000000000000E+00 0.000000000000E+00 -1.072904559214E-01 -3.581166225275E-01 4.233289793050E-01 -4.964998978713E+02 -3.380438943101E+02 4.419109611847E+02 -4.137534750453E-04 -1.496582489786E-03 1.312810171088E-01 3.420630325110E+03
 -7.838800106668E-03 3.536954060695E-04 -4.019542736174E-01 1.183853104442E-01 3.884431158673E-01 3.309217143796E-01 0.000000000000E+00 0.000000000000E+00 0.000000000000E+00 -3.809931070034E+02 -2.770810764209E+02 -2.981555918104E+02 -7.446689301181E-01 8.761623443949E-01 9.125931073351E-01 -2.582038764609E-03 -1.356693213662E-03 6.942720062044E-02 3.996450410043E+01 -1.117466753144E+03 -3.576916461365E+01 0.000000000000E+00 0.000000000000E+00 0.000000000000E+00 1.472114027542E-01 -5.994451183566E-01 -9.466572393931E-01 -3.370444899232E+02 -2.305613138325E+02 3.016472591840E+02 1.429490780515E-03 5.170593119959E-03 -4.535671962466E-01 7.275966300559E+02 3.872457876888E+03
 4.271229157416E-03 -1.927226247245E-04 2.190180627214E-01 -5.149715895750E-01 -3.687489024517E-01 3.501655599096E-01 0.000000000000E+00 0.000000000000E+00 0.000000000000E+00 -4.086707623088E+02 -2.987083255671E+02 -3.201456617904E+02 2.017063576768E-01 4.935831765375E-01 -6.054135739854E-01 7.668810739433E-03 4.029460606733E-03 -2.062029699261E-01 2.723915699752E-01 -3.534553862807E+01 -1.596292267463E+00 0.000000000000E+00 0.000000000000E+00 0.000000000000E+00 3.405298580312E-01 1.873821639348E-01 4.127442888173E-01 4.430136268267E+02 3.005712714198E+02 -3.948438897425E+02 -9.858447895018E-04 -3.565886786700E-03 3.128014977108E-01 1.027158726004E+03 -5.864673809180E+02 3.909801712645E+03
 0.000000000000E+00 0.000000000000E+00 0.000000000000E+00 0.000000000000E+00 0.000000000000E+00 0.000000000000E+00 0.000000000000E+00 0.000000000000E+00 0.000000000000E+00 0.000000000000E+00 0.000000000000E+00 0.000000000000E+00 0.000000000000E+00 0.000000000000E+00 0.000000000000E+00 0.000000000000E+00 0.000000000000E+00 0.000000000000E+00 0.000000000000E+00 0.000000000000E+00 0.000000000000E+00 0.000000000000E+00 0.000000000000E+00 0.000000000000E+00 0.000000000000E+00 0.000000000000E+00 0.000000000000E+00 0.000000000000E+00 0.000000000000E+00 0.000000000000E+00 0.000000000000E+00 0.000000000000E+00 0.000000000000E+00 0.000000000000E+00 0.000000000000E+00 0.000000000000E+00 0.000000000000E+00
 0.000000000000E+00 0.000000000000E+00 0.000000000000E+00 0.000000000000E+00 0.000000000000E+00 0.000000000000E+00 0.000000000000E+00 0.000000000000E+00 0.000000000000E+00 0.000000000000E+00 0.000000000000E+00 0.000000000000E+00 0.000000000000E+00 0.000000000000E+00 0.000000000000E+00 0.000000000000E+00 0.000000000000E+00 0.000000000000E+00 0.000000000000E+00 0.000000000000E+00 0.000000000000E+00 0.000000000000E+00 0.000000000000E+00 0.000000000000E+00 0.000000000000E+00 0.000000000000E+00 0.000000000000E+00 0.000000000000E+00 0.000000000000E+00 0.000000000000E+00 0.000000000000E+00 0.000000000000E+00 0.000000000000E+00 0.000000000000E+00 0.000000000000E+00 0.000000000000E+00 0.000000000000E+00 0.000000000000E+00
 0.000000000000E+00 0.000000000000E+00 0.000000000000E+00 0.000000000000E+00 0.000000000000E+00 0.000000000000E+00 0.000000000000E+00 0.000000000000E+00 0.000000000000E+00 0.000000000000E+00 0.000000000000E+00 0.000000000000E+00 0.000000000000E+00 0.000000000000E+00 0.000000000000E+00 0.000000000000E+00 0.000000000000E+00 0.000000000000E+00 0.000000000000E+00 0.000000000000E+00 0.000000000000E+00 0.000000000000E+00 0.000000000000E+00 0.000000000000E+00 0.000000000000E+00 0.000000000000E+00 0.000000000000E+00 0.000000000000E+00 0.000000000000E+00 0.000000000000E+00 0.000000000000E+00 0.000000000000E+00 0.000000000000E+00 0.000000000000E+00 0.000000000000E+00 0.000000000000E+00 0.000000000000E+00 0.000000000000E+00 0.000000000000E+00
 2.378290620405E-01 -1.073111261020E-02 1.219528583160E+01 3.282455416862E-01 1.398046680752E-01 -9.132276505044E-02 0.000000000000E+00 0.000000000000E+00 0.000000000000E+00 2.604775933525E+01 2.615811249826E+01 1.990576056685E+01 1.630100598843E-01 1.344668678404E-01 -5.788360325543E-02 -5.400564215333E-01 -2.837644779512E-01 1.452131781987E+01 -5.625429844202E+02 -4.031910667560E+02 3.890536622445E+02 0.000000000000E+00 0.000000000000E+00 0.000000000000E+00 9.269732059756E+01 9.329129335931E+01 -6.497665656301E+01 -1.001996180011E-01 1.723460763960E-01 -1.759612331784E-01 5.272106053897E-01 1.906966848724E+00 -1.672801527492E+02 -4.767879445872E-01 1.293840047087E-01 -1.574643666840E-01 0.000000000000E+00 0.000000000000E+00 0.000000000000E+00 4.288019837145E+02
 1.738118594763E-01 -7.842585010537E-03 8.912642084399E+00 1.263683500493E-01 -1.094600050083E-01 2.197681732677E-01 0.000000000000E+00 0.000000000000E+00 0.000000000000E+00 6.043609673630E+00 3.001742268076E+01 5.315980367707E+00 4.082417279115E-02 1.411613043780E-01 2.291355993296E-01 -6.195967724352E-01 -3.255577522273E-01 1.666004012535E+01 -4.028215031032E+02 -2.885997791388E+02 2.788251005177E+02 0.000000000000E+00 0.000000000000E+00 0.000000000000E+00 5.949229913156E+01 7.774975326331E+01 -5.520885945900E+01 -1.120916918900E-01 2.149250079371E-01 -6.165647100517E-02 3.940539671609E-01 1.425327647627E+00 -1.250305042126E+02 -3.237852616032E-01 3.543131789302E-02 -2.087440205471E-01 0.000000000000E+00 0.000000000000E+00 0.000000000000E+00 1.182356489931E+01 2.189791671676E+02
 -1.424158170876E-01 6.425960551368E-03 -7.302730715174E+00 1.405488218686E-01 5.662256697496E-03 -3.574708292457E-01 0.000000000000E+00 0.000000000000E+00 0.000000000000E+00 7.515879528551E+01 -3.656955607574E+01 5.436109341275E+01 -5.474607584638E-01 -1.119869683736E+00 -1.442330508263E-01 6.512183248085E-01 3.421728186230E-01 -1.751029686458E+01 3.895620680128E+02 2.794113008470E+02 -2.696255152516E+02 0.000000000000E+00 0.000000000000E+00 0.000000000000E+00 7.603852595983E+00 -2.947690024598E+01 8.788499869218E+01 3.432903316177E-01 2.615191054849E-01 3.727236149231E-02 -5.438829107211E-01 -1.967272034609E+00 1.725701559358E+02 4.702655455706E-01 -5.080937111563E-01 2.525159115839E-01 0.000000000000E+00 0.000000000000E+00 0.000000000000E+00 7.172826419302E+00 -1.950945211264E+02 8.133110957063E+02
 -5.365913055600E-03 2.421159834806E-04 -2.751507444007E-01 -4.661166165361E-01 3.019722512718E-01 4.910334331892E-01 0.000000000000E+00 0.000000000000E+00 0.000000000000E+00 2.330712576186E-01 -1.506573749751E-01 -4.404354447613E-01 1.034060015048E-01 4.624135723930E-01 -4.579610587760E-01 4.083384755844E-04 2.145552755813E-04 -1.097961721336E-02 -5.749066320472E+02 3.833836688536E+02 -4.070830444996E+02 0.000000000000E+00 0.000000000000E+00 0.000000000000E+00 1.294783165276E-01 -7.160597455051E-02 3.796965567546E-01 3.705111816381E-01 -1.617054779040E-01 3.673326542959E-01 -4.879309739156E-04 -1.764888987836E-03 1.548170067394E-01 -4.451372316771E-02 6.419535882649E-01 -5.215657788150E-01 0.000000000000E+00 0.000000000000E+00 0.000000000000E+00 2.468335918309E-02 6.178876547752E-02 9.803189419398E-02 2.828974608958E+03
 2.671795277743E-03 -1.205543836859E-04 1.370030509142E-01 9.041765758462E-02 1.742434216094E-01 -7.070672406614E-01 0.000000000000E+00 0.000000000000E+00 0.000000000000E+00 -3.125668797167E-01 1.661999414041E-01 9.318767213004E-02 -4.031174705912E-02 -2.619511850146E-01 8.225354140227E-02 3.933071620991E-03 2.066572992701E-03 -1.057544744206E-01 3.847422610877E+02 -2.569224167944E+02 2.723972495015E+02 0.000000000000E+00 0.000000000000E+00 0.000000000000E+00 -3.348742934993E-01 2.164524675986E-02 5.794867942917E-02 -6.492865987900E-01 7.032196218870E-01 4.213708347821E-01 9.272911156114E-04 3.354093029445E-03 -2.942228359534E-01 -8.496467658046E-02 5.546268103000E-01 5.057199090783E-02 0.000000000000E+00 0.000000000000E+00 0.000000000000E+00 -2.502620577295E-01 2.697985400445E-02 1.978364486445E-01 5.522631855006E+02 3.854227211300E+03
 -6.246447580294E-03 2.818466835919E-04 -3.203023760857E-01 -3.957556999987E-01 -5.538613659031E-01 4.823673958489E-01 0.000000000000E+00 0.000000000000E+00 0.000000000000E+00 7.455638335522E-02 1.522439344656E-01 -4.922679079150E-02 4.470408038488E-01 1.022315860988E+00 -2.979420334746E-01 -6.805679559262E-04 -3.575941383602E-04 1.829946500400E-02 -4.074153850409E+02 2.713293103040E+02 -2.880186868325E+02 0.000000000000E+00 0.000000000000E+00 0.000000000000E+00 2.356023173705E-01 -7.774587090071E-02 1.107145662932E-01 6.780470977083E-01 -1.610841592651E+00 8.621967804670E-01 6.373252415466E-04 2.305261113983E-03 -2.022187389004E-01 1.754760709231E-02 1.441671921523E+00 -4.619714934491E-01 0.000000000000E+00 0.000000000000E+00 0.000000000000E+00 2.953841158011E-01 2.603819831827E-03 -1.401125137618E-01 -1.634637941127E+02 -1.727377888834E+02 2.281092311754E+03
 5.762203173517E-05 -2.599970357170E-06 2.954715210912E-03 3.158161760283E-03 -3.769774695379E-03 7.401531397774E-04 0.000000000000E+00 0.000000000000E+00 0.000000000000E+00 -1.003134155237E-01 9.002008280865E-02 -7.447952392347E-02 -3.299063637272E-03 -2.844160518137E-03 4.809742835974E-04 1.053205582277E-03 5.533909427121E-04 -2.831913922342E-02 -5.253798832474E-04 -2.539374084396E-03 1.600283102609E-03 0.000000000000E+00 0.000000000000E+00 0.000000000000E+00 -1.161320201777E-01 5.870622113402E-02 -1.004257112438E-01 1.991751439572E-03 -2.049144529711E-03 6.696218223310E-04 2.217114140313E-04 8.019495666799E-04 -7.034744526427E-02 7.693574165850E-04 3.222874049293E-03 -2.597499316975E-04 0.000000000000E+00 0.000000000000E+00 0.000000000000E+00 2.387698595238E-01 -1.328048597173E-01 1.079209023476E-01 5.258113924608E-03 1.358538464596E-03 4.425519789189E-04 3.822619736697E-02
 -5.532724986437E-05 2.496427239016E-06 -2.837044474647E-03 -3.032388820067E-03 3.619644435000E-03 -7.106767406357E-04 0.000000000000E+00 0.000000000000E+00 0.000000000000E+00 9.631846080917E-02 -8.643505729296E-02 7.151339697344E-02 3.167679317813E-03 2.730892592690E-03 -4.618196124918E-04 -1.011261954056E-03 -5.313522976911E-04 2.719133714270E-02 5.044567711139E-04 2.438244196460E-03 -1.536552259710E-03 0.000000000000E+00 0.000000000000E+00 0.000000000000E+00 1.115070937997E-01 -5.636826171286E-02 9.642628438254E-02 -1.912430475749E-03 1.967537901555E-03 -6.429543138815E-04 -2.128818167722E-04 -7.700121415060E-04 6.754587723225E-02 -7.387179649971E-04 -3.094523959622E-03 2.494054607330E-04 0.000000000000E+00 0.000000000000E+00 0.000000000000E+00 -2.292609142744E-01 1.275159420020E-01 -1.036229815223E-01 -5.048710955892E-03 -1.304435036698E-03 -4.249274657330E-04 -3.670384936802E-02 3.524212846749E-02
 6.604656001495E-03 -2.980094471870E-04 3.386704175956E-01 3.619895271936E-01 -4.320928005550E-01 8.483659339054E-02 0.000000000000E+00 0.000000000000E+00 0.000000000000E+00 -1.149795628370E+01 1.031813114313E+01 -8.536867233881E+00 -3.781397461195E-01 -3.259986027855E-01 5.512942867624E-02 1.207187660748E-01 6.342984967546E-02 -3.245948939961E+00 -6.021921293754E-02 -2.910638827112E-01 1.834249692256E-01 0.000000000000E+00 0.000000000000E+00 0.000000000000E+00 -1.331108988932E+01 6.728926142693E+00 -1.151082765563E+01 2.282951972141E-01 -2.348736118555E-01 7.675227086605E-02 2.541263432035E-02 9.191971992261E-02 -8.063247035263E+00 8.818399708808E-02 3.694068707878E-01 -2.977262157570E-02 0.000000000000E+00 0.000000000000E+00 0.000000000000E+00 2.736787888577E+01 -1.522213617511E+01 1.236992889547E+01 6.026867266381E-01 1.557161202627E-01 5.072545162886E-02 4.381499163626E+00 -4.207007141307E+00 5.022088578824E+02
 -4.254313145023E-01 1.919593553732E-02 -2.181506514618E+01 9.373252697431E-02 -1.347787933380E+01 -2.692109413055E-01 0.000000000000E+00 0.000000000000E+00 0.000000000000E+00 -5.375181443115E+02 -3.901495338492E+02 4.015083963324E+02 -4.357404242747E+02 3.320797350585E+02 -4.336837469719E+02 -1.499236864771E-03 -7.877513335529E-04 4.031226022417E-02 -7.446845990681E-01 8.771455155310E-01 6.060223196183E-01 0.000000000000E+00 0.000000000000E+00 0.000000000000E+00 -5.334213331426E+02 3.934389010457E+02 3.976205045891E+02 -4.459236671433E+02 -3.457227116597E+02 -4.254417775348E+02 6.450197497888E-04 2.333092822954E-03 -2.046601513093E-01 -3.707785920290E-01 -8.031937455779E-01 -1.597411803257E-01 0.000000000000E+00 0.000000000000E+00 0.000000000000E+00 5.415587568114E-01 8.989686739487E-02 -3.013820079100E-01 -7.981811462481E-02 6.146007752333E-01 4.080764272132E-01 3.006888793772E-04 -2.887140258638E-04 3.446505706162E-02 4.233111293141E+03
 1.433922240498E-02 -6.470017122818E-04 7.352798448233E-01 -1.125440451140E+01 -1.120219229549E+03 -1.004803258038E+01 0.000000000000E+00 0.000000000000E+00 0.000000000000E+00 -3.903201679036E+02 -2.831472559704E+02 2.910477214691E+02 3.319095470917E+02 -2.528772086816E+02 3.302402142412E+02 9.156893017778E-03 4.811350931571E-03 -2.462152998315E-01 -9.889052322093E-01 -4.869212804872E-01 -1.609695375257E-01 0.000000000000E+00 0.000000000000E+00 0.000000000000E+00 3.938267082581E+02 -2.904577000748E+02 -2.934746170564E+02 -3.459400142437E+02 -2.691740887794E+02 -3.311555782362E+02 -8.796920527247E-04 -3.181923057849E-03 2.791199938842E-01 9.848737663232E-01 1.191330953885E+00 6.702100875554E-01 0.000000000000E+00 0.000000000000E+00 0.000000000000E+00 -2.471439451445E-01 1.284545064914E-01 5.983683866042E-02 -1.292610346952E+00 -7.905645729102E-01 -3.550292610652E-01 3.437803552066E-03 -3.300893952924E-03 3.940421602361E-01 2.050643105681E+01 4.420810208005E+03
 -2.184065407823E+01 9.854746782548E-01 -1.119934699939E+03 -1.110048333268E+00 -1.075455829877E+01 -1.379320050209E-01 0.000000000000E+00 0.000000000000E+00 0.000000000000E+00 4.015632361462E+02 2.905877493663E+02 -2.996605178038E+02 -4.335610748917E+02 3.300022840232E+02 -4.314369899560E+02 -3.676048416924E-03 -1.931524037785E-03 9.884350089167E-02 -2.201634964302E-02 2.490418779358E-01 -6.679357360575E-01 0.000000000000E+00 0.000000000000E+00 0.000000000000E+00 3.981776300679E+02 -2.931269721278E+02 -2.962963892609E+02 -4.251921126639E+02 -3.301354149520E+02 -4.067017131869E+02 -1.070080388224E-03 -3.870574311198E-03 3.395288504557E-01 -1.273535084752E-01 6.343696477771E-01 -3.031725271471E-01 0.000000000000E+00 0.000000000000E+00 0.000000000000E+00 -4.800702922666E-01 -2.552904214133E-01 4.801445152676E-01 5.028377611907E-01 -2.187812031420E-01 4.959784752775E-01 -4.893521613717E-03 4.698638435437E-03 -5.608970374912E-01 8.619787196466E+01 -9.570799701650E+00 3.670066992973E+03
 0.000000000000E+00 0.000000000000E+00 0.000000000000E+00 0.000000000000E+00 0.000000000000E+00 0.000000000000E+00 0.000000000000E+00 0.000000000000E+00 0.000000000000E+00 0.000000000000E+00 0.000000000000E+00 0.000000000000E+00 0.000000000000E+00 0.000000000000E+00 0.000000000000E+00 0.000000000000E+00 0.000000000000E+00 0.000000000000E+00 0.000000000000E+00 0.000000000000E+00 0.000000000000E+00 0.000000000000E+00 0.000000000000E+00 0.000000000000E+00 0.000000000000E+00 0.000000000000E+00 0.000000000000E+00 0.000000000000E+00 0.000000000000E+00 0.000000000000E+00 0.000000000000E+00 0.000000000000E+00 0.000000000000E+00 0.000000000000E+00 0.000000000000E+00 0.000000000000E+00 0.000000000000E+00 0.000000000000E+00 0.000000000000E+00 0.000000000000E+00 0.000000000000E+00 0.000000000000E+00 0.000000000000E+00 0.000000000000E+00 0.000000000000E+00 0.000000000000E+00 0.000000000000E+00 0.000000000000E+00 0.000000000000E+00 0.000000000000E+00 0.000000000000E+00 0.000000000000E+00
 0.000000000000E+00 0.000000000000E+00 0.000000000000E+00 0.000000000000E+00 0.000000000000E+00 0.000000000000E+00 0.000000000000E+00 0.000000000000E+00 0.000000000000E+00 0.000000000000E+00 0.000000000000E+00 0.000000000000E+00 0.000000000000E+00 0.000000000000E+00 0.000000000000E+00 0.000000000000E+00 0.000000000000E+00 0.000000000000E+00 0.000000000000E+00 0.000000000000E+00 0.000000000000E+00 0.000000000000E+00 0.000000000000E+00 0.000000000000E+00 0.000000000000E+00 0.000000000000E+00 0.000000000000E+00 0.000000000000E+00 0.000000000000E+00 0.000000000000E+00 0.000000000000E+00 0.000000000000E+00 0.000000000000E+00 0.000000000000E+00 0.000000000000E+00 0.000000000000E+00 0.000000000000E+00 0.000000000000E+00 0.000000000000E+00 0.000000000000E+00 0.000000000000E+00 0.000000000000E+00 0.000000000000E+00 0.000000000000E+00 0.000000000000E+00 0.000000000000E+00 0.000000000000E+00 0.000000000000E+00 0.000000000000E+00 0.000000000000E+00 0.000000000000E+00 0.000000000000E+00 0.000000000000E+00
 0.000000000000E+00 0.000000000000E+00 0.000000000000E+00 0.000000000000E+00 0.000000000000E+00 0.000000000000E+00 0.000000000000E+00 0.000000000000E+00 0.000000000000E+00 0.000000000000E+00 0.000000000000E+00 0.000000000000E+00 0.000000000000E+00 0.000000000000E+00 0.000000000000E+00 0.000000000000E+00 0.000000000000E+00 0.000000000000E+00 0.000000000000E+00 0.000000000000E+00 0.000000000000E+00 0.000000000000E+00 0.000000000000E+00 0.000000000000E+00 0.000000000000E+00 0.000000000000E+00 0.000000000000E+00 0.000000000000E+00 0.000000000000E+00 0.000000000000E+00 0.000000000000E+00 0.000000000000E+00 0.000000000000E+00 0.000000000000E+00 0.000000000000E+00 0.000000000000E+00 0.000000000000E+00 0.000000000000E+00 0.000000000000E+00 0.000000000000E+00 0.000000000000E+00 0.000000000000E+00 0.000000000000E+00 0.000000000000E+00 0.000000000000E+00 0.000000000000E+00 0.000000000000E+00 0.000000000000E+00 0.000000000000E+00 0.000000000000E+00 0.000000000000E+00 0.000000000000E+00 0.000000000000E+00 0.000000000000E+00