#BIOSYM hessian 1
@Type: Hessian Update
@Units
 distance: 	A
 energy: 	Kcal/Mol
#header
@natom 80

#label
P1      P2      P3      P4      A5      A6      A7      A8      A9      A10     P11     P12     P13     P14     A15     A16     A17     A18     O19     O20     P21     P22     P23     P24     A25     A26     A27     A28     A29     A30     P31     P32     P33     P34     A35     A36     A37     A38     O39     O40     P41     P42     P43     P44     A45     A46     A47     A48     A49     A50     P51     P52     P53     P54     A55     A56     A57     A58     O59     O60     P61     P62     P63     P64     A65     A66     A67     A68     A69     A70     P71     P72     P73     P74     A75     A76     A77     A78     O79     O80

#element
Pd Pd Pd Pd Ag Ag Ag Ag Ag Ag Pd Pd Pd Pd Ag Ag Ag Ag O  O  Pd Pd Pd Pd Ag Ag Ag Ag Ag Ag Pd Pd Pd Pd Ag Ag Ag Ag O  O  Pd Pd Pd Pd Ag Ag Ag Ag Ag Ag Pd Pd Pd Pd Ag Ag Ag Ag O  O  Pd Pd Pd Pd Ag Ag Ag Ag Ag Ag Pd Pd Pd Pd Ag Ag Ag Ag O  O 

#matrix
240
 6.793174826300E-02
 7.292723675330E-02 7.829007785700E-02
 -5.774392180165E+00 -6.199022936948E+00 4.908397899795E+02
 3.161239248827E-02 3.393706904768E-02 -2.687143443945E+00 2.738886087018E+03
 2.631371219927E-01 2.824874036783E-01 -2.236740520299E+01 3.952225197540E+02 3.429636818807E+03
 -5.912802906687E-02 -6.347611955785E-02 5.026050961481E+00 1.506120377047E+03 -2.437405096966E+02 3.641735167165E+03
 0.000000000000E+00 0.000000000000E+00 0.000000000000E+00 0.000000000000E+00 0.000000000000E+00 0.000000000000E+00 0.000000000000E+00
 0.000000000000E+00 0.000000000000E+00 0.000000000000E+00 0.000000000000E+00 0.000000000000E+00 0.000000000000E+00 0.000000000000E+00 0.000000000000E+00
 0.000000000000E+00 0.000000000000E+00 0.000000000000E+00 0.000000000000E+00 0.000000000000E+00 0.000000000000E+00 0.000000000000E+00 0.000000000000E+00 0.000000000000E+00
 2.472229728705E+00 2.654029777591E+00 -2.101465717876E+02 -8.385194834596E-01 -5.188513117321E+00 -3.390439123464E-01 0.000000000000E+00 0.000000000000E+00 0.000000000000E+00 7.713473933245E+02
 1.696210616747E+00 1.820944645088E+00 -1.441827359328E+02 4.736478378731E+00 3.451948641329E+01 -7.921012161088E+00 0.000000000000E+00 0.000000000000E+00 0.000000000000E+00 2.017625805925E+02 4.098704904578E+02
 -1.716246927407E+00 -1.842454363423E+00 1.458858794342E+02 -6.158960416924E+00 -5.748783370499E+01 1.219889799703E+01 0.000000000000E+00 0.000000000000E+00 0.000000000000E+00 1.594471884327E+02 -1.186615217883E+02 3.641004688703E+02
 -1.030411245188E-03 -1.106184468271E-03 8.758789209328E-02 -2.970714301400E+01 1.226398356662E+01 -2.469717571723E+01 0.000000000000E+00 0.000000000000E+00 0.000000000000E+00 3.738374821936E-02 3.134437585003E-02 8.126633471039E-01 3.183529159570E+03
 -3.272512245257E-02 -3.513162569642E-02 2.781728661737E+00 -3.474139025878E+01 3.801599279631E+01 -3.572740661132E+01 0.000000000000E+00 0.000000000000E+00 0.000000000000E+00 1.168405267853E+00 -4.525948422601E+00 8.507127819285E+00 1.080026784460E+03 4.291205074849E+03
 1.167501101462E-01 1.253355484191E-01 -9.924092052687E+00 -2.030547832197E+01 -7.173093249471E+01 5.566046998646E+00 0.000000000000E+00 0.000000000000E+00 0.000000000000E+00 -1.860643349855E+00 1.514968694287E+01 -2.420353248515E+01 4.279447680076E+01 5.880154235315E+01 2.519999652708E+03
 -8.782226924753E-04 -9.428044449602E-04 7.465143143733E-02 -7.347955139573E-02 1.267251878597E-01 -9.940053750036E-02 0.000000000000E+00 0.000000000000E+00 0.000000000000E+00 1.579807327393E-02 -2.087073869984E-02 3.853336797142E-02 -5.374431500764E-02 -8.800116333680E-02 1.785707602371E-02 2.810464197454E-02
 -1.849507181011E-03 -1.985514159659E-03 1.572133807280E-01 -1.547454411373E-01 2.668789442242E-01 -2.093341580427E-01 0.000000000000E+00 0.000000000000E+00 0.000000000000E+00 3.327020608397E-02 -4.395306729044E-02 8.114996501720E-02 -1.131837031733E-01 -1.853274629809E-01 3.760639598668E-02 5.918742204799E-02 1.246467018459E-01
 1.167223730157E-01 1.253057715867E-01 -9.921734317554E+00 9.765982683581E+00 -1.684272653689E+01 1.321107586435E+01 0.000000000000E+00 0.000000000000E+00 0.000000000000E+00 -2.099682253042E+00 2.773877478354E+00 -5.121373187517E+00 7.143021966463E+00 1.169601366581E+01 -2.373339138773E+00 -3.735317399713E+00 -7.866451656645E+00 4.964516569626E+02
 1.019546629689E-01 1.094520902900E-01 -8.666436881617E+00 1.862573736761E+01 -7.531808997774E+01 3.743145032274E+01 0.000000000000E+00 0.000000000000E+00 0.000000000000E+00 -5.925955986582E+02 4.075285315029E+02 -4.194379610901E+02 -5.194027315550E+02 -3.352029211010E+02 4.007302203595E+02 8.724537809438E-02 1.837358049139E-01 -1.159556414687E+01 3.410664575495E+03
 -5.311569469384E-02 -5.702165690271E-02 4.514985407069E+00 1.145774117176E+01 3.300227354576E+01 -8.457432163158E-01 0.000000000000E+00 0.000000000000E+00 0.000000000000E+00 3.952792049860E+02 -2.685394111581E+02 2.760164602625E+02 -3.630427563094E+02 -2.499754516244E+02 3.055232337213E+02 -5.861668926023E-03 -1.234447579672E-02 7.790596994819E-01 2.957453699293E+01 3.832535525726E+03
 -3.108453046389E-01 -3.337038969951E-01 2.642273667680E+01 -4.538767474303E+00 2.157197339428E+02 -7.202391696579E+01 0.000000000000E+00 0.000000000000E+00 0.000000000000E+00 -3.911465043822E+02 2.226592519440E+02 -1.997238921101E+02 4.004245223477E+02 2.325944215263E+02 -2.511064598003E+02 -1.644246362148E-01 -3.462727028350E-01 2.185326556201E+01 -1.070076968914E+03 -7.666911304025E+01 3.651230221337E+03
 0.000000000000E+00 0.000000000000E+00 0.000000000000E+00 0.000000000000E+00 0.000000000000E+00 0.000000000000E+00 0.000000000000E+00 0.000000000000E+00 0.000000000000E+00 0.000000000000E+00 0.000000000000E+00 0.000000000000E+00 0.000000000000E+00 0.000000000000E+00 0.000000000000E+00 0.000000000000E+00 0.000000000000E+00 0.000000000000E+00 0.000000000000E+00 0.000000000000E+00 0.000000000000E+00 0.000000000000E+00
 0.000000000000E+00 0.000000000000E+00 0.000000000000E+00 0.000000000000E+00 0.000000000000E+00 0.000000000000E+00 0.000000000000E+00 0.000000000000E+00 0.000000000000E+00 0.000000000000E+00 0.000000000000E+00 0.000000000000E+00 0.000000000000E+00 0.000000000000E+00 0.000000000000E+00 0.000000000000E+00 0.000000000000E+00 0.000000000000E+00 0.000000000000E+00 0.000000000000E+00 0.000000000000E+00 0.000000000000E+00 0.000000000000E+00
 0.000000000000E+00 0.000000000000E+00 0.000000000000E+00 0.000000000000E+00 0.000000000000E+00 0.000000000000E+00 0.000000000000E+00 0.000000000000E+00 0.000000000000E+00 0.000000000000E+00 0.000000000000E+00 0.000000000000E+00 0.000000000000E+00 0.000000000000E+00 0.000000000000E+00 0.000000000000E+00 0.000000000000E+00 0.000000000000E+00 0.000000000000E+00 0.000000000000E+00 0.000000000000E+00 0.000000000000E+00 0.000000000000E+00 0.000000000000E+00
 2.378532372282E+00 2.553442210368E+00 -2.021820294923E+02 9.795052508028E+00 -2.994344655069E+01 1.479712054126E+01 0.000000000000E+00 0.000000000000E+00 0.000000000000E+00 3.435181885482E+02 -7.096690472914E-01 2.053195808066E+00 7.846872828127E+00 1.370588149215E+01 3.321104800253E+00 -1.423732573239E+00 -2.998332473765E+00 1.892247216021E+02 -6.045945944229E+02 -3.938008207239E+02 -3.579497245497E+02 0.000000000000E+00 0.000000000000E+00 0.000000000000E+00 1.092289835792E+03
 -1.830342503613E+00 -1.964940171772E+00 1.555843285377E+02 4.974484243387E+00 4.435751519054E+01 -1.163335156486E+01 0.000000000000E+00 0.000000000000E+00 0.000000000000E+00 3.264981500054E+01 -1.016192613126E+02 1.542177523107E+02 -1.467058403753E+00 -7.070254475515E+00 3.476136702945E+01 1.173356782384E+00 2.471049556680E+00 -1.559479038830E+02 -3.793311452105E+02 -2.744188165066E+02 -3.150813763543E+02 0.000000000000E+00 0.000000000000E+00 0.000000000000E+00 5.586353890542E+01 5.989000647305E+02
 -2.435430366030E+00 -2.614524304778E+00 2.070185210970E+02 -3.199038770778E+00 -2.925366655496E+01 9.014372741278E+00 0.000000000000E+00 0.000000000000E+00 0.000000000000E+00 1.693598241851E+00 -1.464932046805E+02 1.471570455623E+02 1.214423470682E+01 1.953447596221E+01 -1.128137207078E+03 -1.574520140882E+00 -3.315885973066E+00 2.092655186201E+02 -4.078840044759E+02 -2.609971691813E+02 -2.328835873385E+02 0.000000000000E+00 0.000000000000E+00 0.000000000000E+00 -7.528049880451E+01 -3.547122847514E+01 9.448793304334E+02
 1.581381889410E-02 1.697671771966E-02 -1.344219668940E+00 2.591621368925E+01 -1.886460370033E+01 2.563332076100E+01 0.000000000000E+00 0.000000000000E+00 0.000000000000E+00 -2.676651961621E-01 1.576482974992E+00 -3.724810805690E+00 1.762349235637E+01 2.167651037915E+01 1.807371294042E+00 5.508259028759E-02 1.160020654880E-01 -7.320888773780E+00 -5.742482681089E+02 3.526627596812E+02 4.623876617108E+02 0.000000000000E+00 0.000000000000E+00 0.000000000000E+00 -8.532019590582E+00 2.489249718790E+00 -1.724746674722E+00 3.210280295657E+03
 9.824721526519E-02 1.054720084674E-01 -8.351293262084E+00 -5.059927706901E+01 -4.994479697788E+01 -2.060620425984E+01 0.000000000000E+00 0.000000000000E+00 0.000000000000E+00 -1.687645833637E+00 1.281572833164E+01 -1.993965253758E+01 -3.062331345258E+01 -1.147597399616E+03 -3.139216622631E+01 -4.554609389280E-02 -9.591852777605E-02 6.053416982180E+00 3.577862404852E+02 -2.074369801305E+02 -2.325026440565E+02 0.000000000000E+00 0.000000000000E+00 0.000000000000E+00 2.534128834657E+00 1.560775348399E+01 -1.057892962957E+01 -1.064111773829E+03 4.234958609552E+03
 -6.614090232681E-03 -7.100469760311E-03 5.622165172408E-01 -3.321401276888E+00 9.682553561245E+00 -5.551141428954E+00 0.000000000000E+00 0.000000000000E+00 0.000000000000E+00 -4.514482781042E-02 -1.582888136034E+00 2.711360522257E+00 -2.319416463409E+00 1.776079908775E+00 2.343549125008E+00 -1.535994274629E-02 -3.234751806413E-02 2.041451424671E+00 4.380036497715E+02 -2.792402250147E+02 -3.501187419195E+02 0.000000000000E+00 0.000000000000E+00 0.000000000000E+00 2.368371253314E+00 -2.002769405190E+00 1.550095504946E+00 6.238137192047E+01 -8.841541365280E+01 1.435300575295E+03
 6.764553449812E-03 7.261997572253E-03 -5.750063194558E-01 -1.021182515818E-01 -3.612128681909E+00 1.029030048529E+00 0.000000000000E+00 0.000000000000E+00 0.000000000000E+00 9.347271448646E+00 -6.186648961053E+00 5.160287003040E+00 2.470839094318E-01 7.974387786232E-01 -1.430389431022E+00 -2.825383372157E-03 -5.950161480324E-03 3.755146100220E-01 -3.758789455169E+00 8.313535318453E-01 -4.619504012054E+01 0.000000000000E+00 0.000000000000E+00 0.000000000000E+00 8.705067904009E+00 7.661672809504E+00 8.548492734099E+00 -3.922696287990E-01 -9.455206562456E-01 1.887142163086E-01 9.580555370808E-01
 -4.627732261284E-04 -4.968041230780E-04 3.933704293610E-02 6.986062432900E-03 2.471111294663E-01 -7.039748578732E-02 0.000000000000E+00 0.000000000000E+00 0.000000000000E+00 -6.394608300283E-01 4.232379150925E-01 -3.530229573707E-01 -1.690338005909E-02 -5.455398038633E-02 9.785508186533E-02 1.932887052905E-04 4.070594525809E-04 -2.568951651096E-02 2.571444124747E-01 -5.687413941507E-02 3.160271835579E+00 0.000000000000E+00 0.000000000000E+00 0.000000000000E+00 -5.955267243423E-01 -5.241465042593E-01 -5.848151826199E-01 2.683575242303E-02 6.468448327124E-02 -1.291022198958E-02 -6.554201323036E-02 4.483827222979E-03
 1.504770158251E-01 1.615426253498E-01 -1.279097514333E+01 -2.271613325744E+00 -8.035154853351E+01 2.289070107079E+01 0.000000000000E+00 0.000000000000E+00 0.000000000000E+00 2.079293960991E+02 -1.376215711094E+02 1.147902215245E+02 5.496364191008E+00 1.773896955663E+01 -3.181891231178E+01 -6.285045443995E-02 -1.323609237298E-01 8.353296094720E+00 -8.361400712186E+01 1.849340085726E+01 -1.027605419165E+03 0.000000000000E+00 0.000000000000E+00 0.000000000000E+00 1.936436234068E+02 1.704333728983E+02 1.901606197621E+02 -8.726010309246E+00 -2.103304051161E+01 4.197934471888E+00 2.131187805437E+01 -1.457977475564E+00 4.740812287231E+02
 -1.857036111541E-01 -1.993596744212E-01 1.578533612774E+01 1.774191804178E+01 1.224124523337E+02 -2.422567585180E+01 0.000000000000E+00 0.000000000000E+00 0.000000000000E+00 3.545119936914E+00 -2.424070652843E+01 3.990828971662E+01 -5.045684660491E+02 3.410698146083E+02 4.829937334775E+02 -1.320515063452E-01 -2.780959901645E-01 1.755063415348E+01 4.112451795843E+01 -8.400080653161E+01 -1.396624403503E+02 0.000000000000E+00 0.000000000000E+00 0.000000000000E+00 -5.307048001302E+02 3.708325965139E+02 -3.743671188836E+02 5.456119280724E+00 4.814623405238E+01 -5.393103646983E+00 2.368089654865E+00 -1.620045576510E-01 5.267798785452E+01 3.162788510003E+03
 4.997282107985E-02 5.364766618418E-02 -4.247832193971E+00 2.042794979116E+00 -3.593598987138E+01 1.042067800576E+01 0.000000000000E+00 0.000000000000E+00 0.000000000000E+00 -8.729184666446E-01 6.816516364753E+00 -1.095540237514E+01 3.582917088952E+02 -2.396407279113E+02 -3.141657806535E+02 -1.090730151503E-01 -2.297040676624E-01 1.449662058315E+01 -7.381035015896E+01 -1.111426949990E+03 3.871501623201E+01 0.000000000000E+00 0.000000000000E+00 0.000000000000E+00 3.952768798702E+02 -2.861665259180E+02 2.817856465227E+02 -4.486094457078E+00 -7.807752999827E+00 2.146264926275E+00 -7.131106006606E-01 4.878496351644E-02 -1.586309516760E+01 2.663879281568E+01 3.860793794393E+03
 9.743742397205E-03 1.046026676530E-02 -8.282458694592E-01 -2.253398280018E+01 1.601537122807E-01 -1.931299508403E+01 0.000000000000E+00 0.000000000000E+00 0.000000000000E+00 -2.512493571753E-01 2.244897535944E+00 -2.233192702874E+00 4.152257561156E+02 -3.188810608725E+02 -3.738462515511E+02 8.396755101782E+00 1.768328123493E+01 -1.115991638009E+03 9.350620284360E+00 3.205513382580E-02 -6.300902966373E+00 0.000000000000E+00 0.000000000000E+00 0.000000000000E+00 -3.846052226789E+02 2.910842185320E+02 -2.837497590452E+02 1.219652753854E+01 -2.365411709573E+01 -2.068413259579E+00 1.686573821787E-02 -1.153810394733E-03 3.751771607014E-01 -8.566462517090E+02 -3.061483998620E+01 2.957477148875E+03
 0.000000000000E+00 0.000000000000E+00 0.000000000000E+00 0.000000000000E+00 0.000000000000E+00 0.000000000000E+00 0.000000000000E+00 0.000000000000E+00 0.000000000000E+00 0.000000000000E+00 0.000000000000E+00 0.000000000000E+00 0.000000000000E+00 0.000000000000E+00 0.000000000000E+00 0.000000000000E+00 0.000000000000E+00 0.000000000000E+00 0.000000000000E+00 0.000000000000E+00 0.000000000000E+00 0.000000000000E+00 0.000000000000E+00 0.000000000000E+00 0.000000000000E+00 0.000000000000E+00 0.000000000000E+00 0.000000000000E+00 0.000000000000E+00 0.000000000000E+00 0.000000000000E+00 0.000000000000E+00 0.000000000000E+00 0.000000000000E+00 0.000000000000E+00 0.000000000000E+00 0.000000000000E+00
 0.000000000000E+00 0.000000000000E+00 0.000000000000E+00 0.000000000000E+00 0.000000000000E+00 0.000000000000E+00 0.000000000000E+00 0.000000000000E+00 0.000000000000E+00 0.000000000000E+00 0.000000000000E+00 0.000000000000E+00 0.000000000000E+00 0.000000000000E+00 0.000000000000E+00 0.000000000000E+00 0.000000000000E+00 0.000000000000E+00 0.000000000000E+00 0.000000000000E+00 0.000000000000E+00 0.000000000000E+00 0.000000000000E+00 0.000000000000E+00 0.000000000000E+00 0.000000000000E+00 0.000000000000E+00 0.000000000000E+00 0.000000000000E+00 0.000000000000E+00 0.000000000000E+00 0.000000000000E+00 0.000000000000E+00 0.000000000000E+00 0.000000000000E+00 0.000000000000E+00 0.000000000000E+00 0.000000000000E+00
 0.000000000000E+00 0.000000000000E+00 0.000000000000E+00 0.000000000000E+00 0.000000000000E+00 0.000000000000E+00 0.000000000000E+00 0.000000000000E+00 0.000000000000E+00 0.000000000000E+00 0.000000000000E+00 0.000000000000E+00 0.000000000000E+00 0.000000000000E+00 0.000000000000E+00 0.000000000000E+00 0.000000000000E+00 0.000000000000E+00 0.000000000000E+00 0.000000000000E+00 0.000000000000E+00 0.000000000000E+00 0.000000000000E+00 0.000000000000E+00 0.000000000000E+00 0.000000000000E+00 0.000000000000E+00 0.000000000000E+00 0.000000000000E+00 0.000000000000E+00 0.000000000000E+00 0.000000000000E+00 0.000000000000E+00 0.000000000000E+00 0.000000000000E+00 0.000000000000E+00 0.000000000000E+00 0.000000000000E+00 0.000000000000E+00
 -8.623241413712E-02 -9.257367640886E-02 7.330000928909E+00 -5.584999244899E+02 -3.762901525075E+02 -4.064857430629E+02 0.000000000000E+00 0.000000000000E+00 0.000000000000E+00 6.048525346477E+01 -3.256999338911E+00 4.669701400775E+01 -6.832143292152E+00 -1.054470702216E+01 6.332104161881E+00 1.354044625001E-01 2.851572020180E-01 -1.799626713743E+01 -5.084525060915E+02 -3.968690278967E+02 3.670294378713E+02 0.000000000000E+00 0.000000000000E+00 0.000000000000E+00 1.018789173053E+02 5.737942139152E+01 -1.069460126136E+01 7.032060121858E+00 -3.340136612740E+00 -1.061433856042E+00 -6.515830108729E+00 4.457576900963E-01 -1.449441825923E+02 -1.166542547642E+01 4.650464327090E+00 -2.869425389980E+00 0.000000000000E+00 0.000000000000E+00 0.000000000000E+00 7.914660095691E+02
 -1.511584854562E-01 -1.622742081281E-01 1.284890200389E+01 -3.874299559441E+02 -1.970045003899E+02 -3.060989097296E+02 0.000000000000E+00 0.000000000000E+00 0.000000000000E+00 2.337970049824E+00 2.205342801026E+01 1.818670675349E+01 -4.227610804431E+00 -1.667563448542E+01 3.492566796805E+01 4.566080905292E-02 9.616011400951E-02 -6.068663486084E+00 -3.584259720799E+02 -3.146745341178E+02 1.949091933682E+02 0.000000000000E+00 0.000000000000E+00 0.000000000000E+00 9.049202549708E+01 7.026922023670E+01 1.501562652034E+01 8.031086818998E+00 2.589560572920E+01 -4.511968622466E+00 -2.551846745568E+00 1.745756552585E-01 -5.676565141588E+01 -5.826582768710E+01 1.694337187624E+01 2.008435453182E+00 0.000000000000E+00 0.000000000000E+00 0.000000000000E+00 -1.036666074264E+01 4.233373654301E+02
 4.354968797386E-02 4.675219594094E-02 -3.701847576649E+00 -3.830505526600E+02 -2.876105385745E+02 -2.741682086397E+02 0.000000000000E+00 0.000000000000E+00 0.000000000000E+00 -4.370784817095E+01 -2.108601749956E+00 -2.913271098069E+01 7.951539814908E+00 9.905031458400E+00 2.902967137137E+00 -1.006082215743E-01 -2.118774997102E-01 1.337158612236E+01 3.912062468693E+02 2.994980367909E+02 -2.945386127730E+02 0.000000000000E+00 0.000000000000E+00 0.000000000000E+00 -7.704248725910E+01 -4.934177416702E+01 9.752375483172E+00 -7.187157496093E+00 1.209186005425E+01 5.577763237259E-01 5.192224423323E+00 -3.552078440936E-01 1.155006671930E+02 -1.955306205631E+00 -1.159686588064E+00 5.414128651022E+00 0.000000000000E+00 0.000000000000E+00 0.000000000000E+00 5.429884734782E+00 -1.533120086434E+01 4.237851457334E+02
 -3.601985977457E-04 -3.866864770551E-04 3.061790722766E-02 4.466939476211E-01 9.872113602059E-02 2.064254848815E-01 0.000000000000E+00 0.000000000000E+00 0.000000000000E+00 5.826263422722E-03 -5.074299003815E-02 7.413032435362E-02 2.569688240417E-01 2.709588297936E-01 1.715107023777E-01 7.829266512551E-04 1.648816952816E-03 -1.040568154464E-01 -1.670985934818E-01 -1.431363995487E-01 -1.127828969400E-02 0.000000000000E+00 0.000000000000E+00 0.000000000000E+00 -6.771400302078E-02 -3.652844409392E-02 2.565340295691E-02 -2.193037697824E-01 4.616925989102E-01 2.339564006294E-02 1.756053257986E-03 -1.201342316948E-04 3.906328124277E-02 -1.962530060435E-01 2.149642240926E-02 2.603454395879E-01 0.000000000000E+00 0.000000000000E+00 0.000000000000E+00 -3.751043538835E-01 -3.038193873945E-01 -4.159181351253E-01 6.292602560539E-01
 -3.173445149242E-04 -3.406810388957E-04 2.697518807115E-02 3.935492115032E-01 8.697593832760E-02 1.818663253486E-01 0.000000000000E+00 0.000000000000E+00 0.000000000000E+00 5.133092553040E-03 -4.470591962389E-02 6.531078124790E-02 2.263963472554E-01 2.387219132540E-01 1.511054762317E-01 6.897791382829E-04 1.452651452185E-03 -9.167681337203E-02 -1.472182913117E-01 -1.261069631227E-01 -9.936472253130E-03 0.000000000000E+00 0.000000000000E+00 0.000000000000E+00 -5.965783203124E-02 -3.218252776237E-02 2.260132817969E-02 -1.932124358012E-01 4.067634209634E-01 2.061217920775E-02 1.547129480304E-03 -1.058414433637E-04 3.441578649922E-02 -1.729041017790E-01 1.893891809898E-02 2.293712350793E-01 0.000000000000E+00 0.000000000000E+00 0.000000000000E+00 -3.304768812929E-01 -2.676729357657E-01 -3.664349047042E-01 5.543949697979E-01 4.884366676272E-01
 1.168203970678E-02 1.254110040213E-02 -9.930066641312E-01 -1.448727581270E+01 -3.201745476271E+00 -6.694836476240E+00 0.000000000000E+00 0.000000000000E+00 0.000000000000E+00 -1.889586496793E-01 1.645707751714E+00 -2.404210893645E+00 -8.334069107010E+00 -8.787796033530E+00 -5.562472613313E+00 -2.539204839970E-02 -5.347479205241E-02 3.374793398460E+00 5.419378132561E+00 4.642231017774E+00 3.657799582078E-01 0.000000000000E+00 0.000000000000E+00 0.000000000000E+00 2.196115356763E+00 1.184698488564E+00 -8.319967757575E-01 7.112507828955E+00 -1.497371535190E+01 -7.587725157493E-01 -5.695270335702E-02 3.896219678772E-03 -1.266908881410E+00 6.364920417581E+00 -6.971766733975E-01 -8.443580240958E+00 0.000000000000E+00 0.000000000000E+00 0.000000000000E+00 1.216546645012E+01 9.853536825091E+00 1.348914793038E+01 -2.040830625974E+01 -1.798025892092E+01 6.618866524372E+02
 2.873643638351E-02 3.084962411791E-02 -2.442678979736E+00 -3.158953514286E+00 1.653240309246E-01 2.219320168231E+00 0.000000000000E+00 0.000000000000E+00 0.000000000000E+00 -6.855094733125E-01 3.745572432594E+00 -6.535468824733E+00 1.080953693372E+00 4.436495009278E+00 -8.602132324666E+00 1.004254161664E-02 2.114925177262E-02 -1.334728991459E+00 -8.501365492229E+00 3.492556396746E+00 2.348143810095E+01 0.000000000000E+00 0.000000000000E+00 0.000000000000E+00 -2.782755704233E+00 5.492301025305E+00 -2.842965293006E+00 -1.735837733053E+00 -6.890468492757E+00 8.236329663318E-01 -3.902427183322E-01 2.669708844428E-02 -8.680921828439E+00 1.439942266169E+01 -4.672850000438E+00 -1.156972444888E+00 0.000000000000E+00 0.000000000000E+00 0.000000000000E+00 -5.326106013274E+02 4.031415665100E+02 -4.010207089077E+02 2.398494932133E-02 2.113137628934E-02 -7.778851225144E-01 3.218329893176E+03
 -1.318295750867E-02 -1.415239100901E-02 1.120588954296E+00 1.520436446781E+01 -1.106825593695E+03 3.313847903297E+01 0.000000000000E+00 0.000000000000E+00 0.000000000000E+00 7.812649986985E-01 -1.685414999420E+00 3.204779370797E+00 -5.795238388552E+00 -7.995535070549E+00 2.734148392139E+00 -2.030883423592E-02 -4.276971556203E-02 2.699196166883E+00 8.022056118751E+00 -3.185515754343E-01 -1.681925571121E+01 0.000000000000E+00 0.000000000000E+00 0.000000000000E+00 3.703530646122E+00 -2.329896631881E+00 1.609751709274E+00 5.346406651242E+00 -4.376692620063E+00 -1.062365174718E+00 2.558771384521E-01 -1.750493801735E-02 5.691968952248E+00 -6.260811241815E+00 3.247455437756E+00 -3.593275090830E+00 0.000000000000E+00 0.000000000000E+00 0.000000000000E+00 3.876235392155E+02 -2.918779601047E+02 2.944160530241E+02 7.173262918421E-02 6.319834823113E-02 -2.326448319473E+00 -1.955411570690E+00 3.862388024571E+03
 -8.388085325641E-02 -9.004918908927E-02 7.130111553058E+00 8.188019447435E+00 9.540187598575E+01 -1.133403294002E+01 0.000000000000E+00 0.000000000000E+00 0.000000000000E+00 1.316323706777E+00 -1.073795130089E+01 1.761998135076E+01 2.223224474646E+00 -4.796911286954E+00 2.385845540915E+01 -2.464705578308E-02 -5.190586288896E-02 3.275778300313E+00 1.877743065900E+01 -1.213211927951E+01 -6.171083783151E+01 0.000000000000E+00 0.000000000000E+00 0.000000000000E+00 6.616363231549E+00 -1.353068845334E+01 9.496095527224E+00 5.866460367690E-01 2.375961317431E+01 -2.309151853330E+00 1.051357392203E+00 -7.192493278581E-02 2.338737126082E+01 -3.857757377946E+01 1.059426673170E+01 3.773742685795E+00 0.000000000000E+00 0.000000000000E+00 0.000000000000E+00 -4.042041747163E+02 2.671097843819E+02 -3.008066170187E+02 -9.241348254259E-02 -8.141872837228E-02 2.997174279026E+00 8.364950347614E+02 -3.282996921924E+01 2.981585434919E+03
 0.000000000000E+00 0.000000000000E+00 0.000000000000E+00 0.000000000000E+00 0.000000000000E+00 0.000000000000E+00 0.000000000000E+00 0.000000000000E+00 0.000000000000E+00 0.000000000000E+00 0.000000000000E+00 0.000000000000E+00 0.000000000000E+00 0.000000000000E+00 0.000000000000E+00 0.000000000000E+00 0.000000000000E+00 0.000000000000E+00 0.000000000000E+00 0.000000000000E+00 0.000000000000E+00 0.000000000000E+00 0.000000000000E+00 0.000000000000E+00 0.000000000000E+00 0.000000000000E+00 0.000000000000E+00 0.000000000000E+00 0.000000000000E+00 0.000000000000E+00 0.000000000000E+00 0.000000000000E+00 0.000000000000E+00 0.000000000000E+00 0.000000000000E+00 0.000000000000E+00 0.000000000000E+00 0.000000000000E+00 0.000000000000E+00 0.000000000000E+00 0.000000000000E+00 0.000000000000E+00 0.000000000000E+00 0.000000000000E+00 0.000000000000E+00 0.000000000000E+00 0.000000000000E+00 0.000000000000E+00 0.000000000000E+00
 0.000000000000E+00 0.000000000000E+00 0.000000000000E+00 0.000000000000E+00 0.000000000000E+00 0.000000000000E+00 0.000000000000E+00 0.000000000000E+00 0.000000000000E+00 0.000000000000E+00 0.000000000000E+00 0.000000000000E+00 0.000000000000E+00 0.000000000000E+00 0.000000000000E+00 0.000000000000E+00 0.000000000000E+00 0.000000000000E+00 0.000000000000E+00 0.000000000000E+00 0.000000000000E+00 0.000000000000E+00 0.000000000000E+00 0.000000000000E+00 0.000000000000E+00 0.000000000000E+00 0.000000000000E+00 0.000000000000E+00 0.000000000000E+00 0.000000000000E+00 0.000000000000E+00 0.000000000000E+00 0.000000000000E+00 0.000000000000E+00 0.000000000000E+00 0.000000000000E+00 0.000000000000E+00 0.000000000000E+00 0.000000000000E+00 0.000000000000E+00 0.000000000000E+00 0.000000000000E+00 0.000000000000E+00 0.000000000000E+00 0.000000000000E+00 0.000000000000E+00 0.000000000000E+00 0.000000000000E+00 0.000000000000E+00 0.000000000000E+00
 0.000000000000E+00 0.000000000000E+00 0.000000000000E+00 0.000000000000E+00 0.000000000000E+00 0.000000000000E+00 0.000000000000E+00 0.000000000000E+00 0.000000000000E+00 0.000000000000E+00 0.000000000000E+00 0.000000000000E+00 0.000000000000E+00 0.000000000000E+00 0.000000000000E+00 0.000000000000E+00 0.000000000000E+00 0.000000000000E+00 0.000000000000E+00 0.000000000000E+00 0.000000000000E+00 0.000000000000E+00 0.000000000000E+00 0.000000000000E+00 0.000000000000E+00 0.000000000000E+00 0.000000000000E+00 0.000000000000E+00 0.000000000000E+00 0.000000000000E+00 0.000000000000E+00 0.000000000000E+00 0.000000000000E+00 0.000000000000E+00 0.000000000000E+00 0.000000000000E+00 0.000000000000E+00 0.000000000000E+00 0.000000000000E+00 0.000000000000E+00 0.000000000000E+00 0.000000000000E+00 0.000000000000E+00 0.000000000000E+00 0.000000000000E+00 0.000000000000E+00 0.000000000000E+00 0.000000000000E+00 0.000000000000E+00 0.000000000000E+00 0.000000000000E+00
 -8.456963199899E-02 -9.078861846824E-02 7.188659708916E+00 -1.788916972712E+00 1.220457702511E+00 -3.657641535486E-01 0.000000000000E+00 0.000000000000E+00 0.000000000000E+00 9.207994620289E+01 -5.842847546912E+01 6.284047760974E+01 -1.635707776313E+00 -2.362382270133E+00 -7.149246711219E-01 1.160591041537E+00 2.444165339762E+00 -1.542512413193E+02 -5.172149752096E+02 3.967783930639E+02 3.920928650384E+02 0.000000000000E+00 0.000000000000E+00 0.000000000000E+00 5.810266909806E+01 1.889097817086E-01 -6.164172686729E+01 1.045640558256E+00 -2.250261835134E+00 -2.930014828989E-01 -6.782752203690E+00 4.640182301196E-01 -1.508818458255E+02 -5.579673469824E+02 -3.996682780601E+02 3.888691407952E+02 0.000000000000E+00 0.000000000000E+00 0.000000000000E+00 3.200549373859E+02 -1.239775363786E+01 3.935662405794E+00 -2.648727284160E+00 -2.333598965734E+00 8.590410262465E+01 -5.399058208963E+02 -3.874370363690E+02 -4.039334715203E+02 0.000000000000E+00 0.000000000000E+00 0.000000000000E+00 8.073175449058E+02
 -6.876511105675E-02 -7.382188244277E-02 5.845230392379E+00 -5.643635632751E+00 2.874086277892E+01 -1.290931172589E+01 0.000000000000E+00 0.000000000000E+00 0.000000000000E+00 -7.270864396543E+01 8.312486327168E+01 -5.324757121533E+01 -6.066655036768E+00 -1.171726028080E+01 7.936092719087E+00 6.776836115819E-01 1.427178683509E+00 -9.006922728764E+01 4.095416099503E+02 -3.047085542875E+02 -3.328954013884E+02 0.000000000000E+00 0.000000000000E+00 0.000000000000E+00 8.172188417771E+00 3.720768542861E+01 1.085555315367E+01 7.208637067564E+00 -2.271006519869E-01 -2.110445283162E+00 5.042877289832E+00 -3.449907831610E-01 1.121784507102E+02 -4.192295312462E+02 -2.807826845538E+02 2.778351169148E+02 0.000000000000E+00 0.000000000000E+00 0.000000000000E+00 -9.814125868114E+00 -1.780049831699E+00 1.164701104917E+02 6.938049035188E-01 6.112605155521E-01 -2.250163238390E+01 -3.823961756294E+02 -2.783461593904E+02 -2.949304513442E+02 0.000000000000E+00 0.000000000000E+00 0.000000000000E+00 -4.100390310952E+01 5.338435630721E+02
 1.092386060930E-01 1.172716718301E-01 -9.285592803430E+00 1.163839764012E+01 -3.511201418361E+01 1.953843318693E+01 0.000000000000E+00 0.000000000000E+00 0.000000000000E+00 -7.130079353685E+01 5.244641419267E+01 -5.906495295222E+01 1.024843333701E+01 1.752696349025E+01 -9.619155009728E+00 -7.763383709701E-01 -1.634942258161E+00 1.031811836556E+02 3.751145924584E+02 -2.987695088126E+02 -2.538681302787E+02 0.000000000000E+00 0.000000000000E+00 0.000000000000E+00 -5.056537654031E+01 9.271540873523E+00 3.999985262855E+01 -1.109548721636E+01 3.079575592250E+00 2.875439247782E+00 4.430090660662E+00 -3.030691326909E-01 9.854705523389E+01 4.123144341034E+02 2.726040418529E+02 -2.674917304726E+02 0.000000000000E+00 0.000000000000E+00 0.000000000000E+00 9.221415843140E+00 -9.789637240480E+01 1.754467262647E+02 -2.035198929623E+00 -1.793064218288E+00 6.600601683587E+01 -4.082141386485E+02 -2.857446066219E+02 -2.944719834592E+02 0.000000000000E+00 0.000000000000E+00 0.000000000000E+00 2.107641951939E+01 -5.794644951088E+00 4.220500488361E+02