#BIOSYM hessian 1
@Type: Hessian Update
@Units
 distance: 	A
 energy: 	Kcal/Mol
#header
@natom 84

#label
P1      P2      P3      P4      A5      A6      A7      A8      A9      A10     P11     P12     P13     P14     A15     A16     A17     A18     A19     A20     O21     P22     P23     P24     P25     A26     A27     A28     A29     A30     A31     P32     P33     P34     P35     A36     A37     A38     A39     A40     A41     O42     P43     P44     P45     P46     A47     A48     A49     A50     A51     A52     P53     P54     P55     P56     A57     A58     A59     A60     A61     A62     O63     P64     P65     P66     P67     A68     A69     A70     A71     A72     A73     P74     P75     P76     P77     A78     A79     A80     A81     A82     A83     O84

#element
Pd Pd Pd Pd Ag Ag Ag Ag Ag Ag Pd Pd Pd Pd Ag Ag Ag Ag Ag Ag O  Pd Pd Pd Pd Ag Ag Ag Ag Ag Ag Pd Pd Pd Pd Ag Ag Ag Ag Ag Ag O  Pd Pd Pd Pd Ag Ag Ag Ag Ag Ag Pd Pd Pd Pd Ag Ag Ag Ag Ag Ag O  Pd Pd Pd Pd Ag Ag Ag Ag Ag Ag Pd Pd Pd Pd Ag Ag Ag Ag Ag Ag O 

#matrix
252
 1.461171271906E-03
 6.190131114366E-04 2.622397794822E-04
 -8.013976183086E-01 -3.395054657486E-01 4.395365245532E+02
 1.512113236117E-03 6.405942527957E-04 -8.293373742944E-01 3.768849304620E+03
 -1.869801576533E-04 -7.921259566986E-05 1.025516008256E-01 4.021619317291E+02 4.260966576348E+03
 1.041098202878E-03 4.410526337778E-04 -5.710033014292E-01 3.730675851731E+02 -2.733231301453E+02 3.174070150152E+03
 0.000000000000E+00 0.000000000000E+00 0.000000000000E+00 0.000000000000E+00 0.000000000000E+00 0.000000000000E+00 0.000000000000E+00
 0.000000000000E+00 0.000000000000E+00 0.000000000000E+00 0.000000000000E+00 0.000000000000E+00 0.000000000000E+00 0.000000000000E+00 0.000000000000E+00
 0.000000000000E+00 0.000000000000E+00 0.000000000000E+00 0.000000000000E+00 0.000000000000E+00 0.000000000000E+00 0.000000000000E+00 0.000000000000E+00 0.000000000000E+00
 2.850695353360E-01 1.207673483848E-01 -1.563499440915E+02 3.932821961901E-01 -1.347502307484E-01 1.997750024287E-01 0.000000000000E+00 0.000000000000E+00 0.000000000000E+00 3.999003614252E+02
 2.072713334786E-01 8.780878430548E-02 -1.136805494243E+02 4.979433856869E-01 -1.834505074666E-01 2.410819579838E-01 0.000000000000E+00 0.000000000000E+00 0.000000000000E+00 -3.795809419240E+00 2.058727145032E+02
 -3.115764646458E-01 -1.319967895202E-01 1.708880002564E+02 -7.119525705336E-01 7.234828923008E-01 -2.681091147479E-01 0.000000000000E+00 0.000000000000E+00 0.000000000000E+00 -2.745406957996E+01 -1.789189007104E+02 8.006994256280E+02
 7.603898089672E-05 3.221328468494E-05 -4.170452797752E-02 -1.976337263655E-01 6.304215024803E-01 -2.368981379589E-01 0.000000000000E+00 0.000000000000E+00 0.000000000000E+00 1.483926880789E-01 5.930046325343E-02 2.230563132375E-01 2.761040484561E+03
 2.690644809087E-04 1.139869395920E-04 -1.475717722607E-01 -4.157470491073E-01 -6.536785821477E-01 -7.137474541475E-02 0.000000000000E+00 0.000000000000E+00 0.000000000000E+00 -1.524993408285E-01 -1.179321746741E-02 -7.007677373231E-01 -5.396524663039E+02 3.870086559574E+03
 3.059603896081E-04 1.296175858293E-04 -1.678077938179E-01 4.687843396210E-01 -7.957930554684E-01 4.382545346909E-02 0.000000000000E+00 0.000000000000E+00 0.000000000000E+00 -3.418939539739E-03 4.967168495745E-02 -1.489081199521E-01 1.880990017984E+02 -1.926583729696E+02 2.330104486776E+03
 4.223990428058E-04 1.789458571916E-04 -2.316700262241E-01 2.167334263675E-03 7.540261961995E-03 6.077601120289E-03 0.000000000000E+00 0.000000000000E+00 0.000000000000E+00 2.135965634860E-01 -3.662265805892E-02 1.478518252344E-02 7.311790516471E-04 -1.500982579858E-03 3.746857700602E-03 1.772210273495E-01
 -2.701568807895E-04 -1.144497257569E-04 1.481709126076E-01 -1.386178009337E-03 -4.822581127213E-03 -3.887096311662E-03 0.000000000000E+00 0.000000000000E+00 0.000000000000E+00 -1.366115343335E-01 2.342302435559E-02 -9.456268569890E-03 -4.676455954527E-04 9.599945331321E-04 -2.396405499485E-03 -1.133465635741E-01 7.249390022285E-02
 2.445930674230E-02 1.036198278822E-02 -1.341501201511E+01 1.255009793966E-01 4.366240487210E-01 3.519276679016E-01 0.000000000000E+00 0.000000000000E+00 0.000000000000E+00 1.236845573963E+01 -2.120660172976E+00 8.561461507574E-01 4.233942527187E-02 -8.691542739241E-02 2.169643690716E-01 1.026210533133E+01 -6.563410627613E+00 5.942342588031E+02
 -9.382681333612E-05 -3.974895262186E-05 5.146048665666E-02 9.002785774627E-01 -2.059376672466E+00 7.490180280239E-01 0.000000000000E+00 0.000000000000E+00 0.000000000000E+00 -5.574153301762E+02 3.937678399849E+02 -3.988762201109E+02 -5.858935121026E+02 -3.853787815878E+02 4.049061528328E+02 3.663926852442E-03 -2.343364803389E-03 2.121622013392E-01 4.529508098625E+03
 1.500241807895E-05 6.355650205170E-06 -8.228263413386E-03 -4.390431667009E-01 7.216851394189E-01 -2.323879984192E-01 0.000000000000E+00 0.000000000000E+00 0.000000000000E+00 3.937333409716E+02 -2.781916418168E+02 2.810155049116E+02 -3.858924209600E+02 -2.543030077055E+02 2.668006036336E+02 5.764407461653E-03 -3.686784726346E-03 3.337919739487E-01 -5.287233254635E-02 4.421241555615E+03
 5.300014752466E-04 2.245307367906E-04 -2.906859230873E-01 7.560169183559E-02 2.419955568832E+00 -4.534888204185E-01 0.000000000000E+00 0.000000000000E+00 0.000000000000E+00 -3.984602487597E+02 2.814796784618E+02 -2.849215556637E+02 4.047817392251E+02 2.672539211573E+02 -2.797762672629E+02 -5.539040397612E-04 3.542645045888E-04 -3.207419392879E-02 -8.739905579944E+00 -6.175397182571E+00 3.374110675786E+03
 0.000000000000E+00 0.000000000000E+00 0.000000000000E+00 0.000000000000E+00 0.000000000000E+00 0.000000000000E+00 0.000000000000E+00 0.000000000000E+00 0.000000000000E+00 0.000000000000E+00 0.000000000000E+00 0.000000000000E+00 0.000000000000E+00 0.000000000000E+00 0.000000000000E+00 0.000000000000E+00 0.000000000000E+00 0.000000000000E+00 0.000000000000E+00 0.000000000000E+00 0.000000000000E+00 0.000000000000E+00
 0.000000000000E+00 0.000000000000E+00 0.000000000000E+00 0.000000000000E+00 0.000000000000E+00 0.000000000000E+00 0.000000000000E+00 0.000000000000E+00 0.000000000000E+00 0.000000000000E+00 0.000000000000E+00 0.000000000000E+00 0.000000000000E+00 0.000000000000E+00 0.000000000000E+00 0.000000000000E+00 0.000000000000E+00 0.000000000000E+00 0.000000000000E+00 0.000000000000E+00 0.000000000000E+00 0.000000000000E+00 0.000000000000E+00
 0.000000000000E+00 0.000000000000E+00 0.000000000000E+00 0.000000000000E+00 0.000000000000E+00 0.000000000000E+00 0.000000000000E+00 0.000000000000E+00 0.000000000000E+00 0.000000000000E+00 0.000000000000E+00 0.000000000000E+00 0.000000000000E+00 0.000000000000E+00 0.000000000000E+00 0.000000000000E+00 0.000000000000E+00 0.000000000000E+00 0.000000000000E+00 0.000000000000E+00 0.000000000000E+00 0.000000000000E+00 0.000000000000E+00 0.000000000000E+00
 2.881045748108E-01 1.220531177294E-01 -1.580145493663E+02 6.843971824208E-01 -4.646436301933E-01 6.460530450383E-01 0.000000000000E+00 0.000000000000E+00 0.000000000000E+00 2.700970163190E+02 -3.915313707148E+00 -2.288979108479E+00 -8.281180614126E-01 7.118406100767E-01 3.970668954906E+01 3.113912198705E+00 -1.991587862194E+00 1.803132249799E+02 -5.546366078111E+02 -3.951023923507E+02 -3.965332271327E+02 0.000000000000E+00 0.000000000000E+00 0.000000000000E+00 8.908835021311E+02
 -1.877704336542E-01 -7.954738955443E-02 1.029850375603E+02 -2.722813336829E-01 2.138170784054E-01 -4.590642569221E-01 0.000000000000E+00 0.000000000000E+00 0.000000000000E+00 -7.930282521365E+00 -4.919620181724E+01 5.291432529338E+01 4.951504674225E-01 -4.726144038546E-01 -1.654951784249E+01 -1.624396211383E+00 1.038927102482E+00 -9.406177850533E+01 -3.957134097852E+02 -2.823518708472E+02 -2.829058126588E+02 0.000000000000E+00 0.000000000000E+00 0.000000000000E+00 -1.012124563833E+01 4.673206789528E+02
 -3.308827090975E-01 -1.401757201343E-01 1.814767509522E+02 -2.400908514677E-01 3.979270846063E-01 -1.186266680440E-01 0.000000000000E+00 0.000000000000E+00 0.000000000000E+00 -4.431022336257E+00 -1.255254739366E+02 1.485654284295E+02 3.878149095140E+01 -1.632417396699E+01 -1.119290336577E+03 3.949285241018E+00 -2.525873579103E+00 2.286860748577E+02 -3.965328132117E+02 -2.827273393859E+02 -2.843239139868E+02 0.000000000000E+00 0.000000000000E+00 0.000000000000E+00 -2.349403011833E+01 -3.107446925934E+00 9.460197106085E+02
 -5.860360108884E-04 -2.482693038720E-04 3.214187634256E-01 -1.988317039761E-01 -1.199969293578E-01 -1.807878813711E-01 0.000000000000E+00 0.000000000000E+00 0.000000000000E+00 -1.399863641094E+00 -3.975530044132E-01 4.011892616913E+01 -3.777189880583E-01 7.714679488618E-01 -2.234352419040E-01 -1.584146481129E-03 1.013184284728E-03 -9.173109022522E-02 -5.904893167772E+02 3.898710276647E+02 4.011236257761E+02 0.000000000000E+00 0.000000000000E+00 0.000000000000E+00 5.051441107241E-01 -2.845168578961E-01 -1.513592824358E-01 2.795477790690E+03
 1.355796008693E-04 5.743717536407E-05 -7.436032402013E-02 4.561597640441E-01 3.820731937522E-01 8.905690949878E-02 0.000000000000E+00 0.000000000000E+00 0.000000000000E+00 -5.266678342627E-01 -3.668453654952E-01 9.085472566542E+00 9.717223532231E-01 -1.120251141734E+03 9.486301164992E+00 3.448899410824E-03 -2.205838111743E-03 1.997108896183E-01 3.897243190720E+02 -2.564374774935E+02 -2.645961913864E+02 0.000000000000E+00 0.000000000000E+00 0.000000000000E+00 -5.265172857865E-01 -1.099506902567E-01 -1.339632334281E-01 5.287970331521E+02 3.855423806069E+03
 6.011676135039E-04 2.546796820365E-04 -3.297178797101E-01 3.385462203191E-01 -1.199610873583E+00 1.068433487641E-01 0.000000000000E+00 0.000000000000E+00 0.000000000000E+00 4.037862976361E+01 9.628908646017E+00 -1.118826705161E+03 -2.850770989656E-01 1.010164110057E+01 5.871464046640E-02 4.162699563503E-03 -2.662368556211E-03 2.410439778070E-01 4.021046945874E+02 -2.639829739057E+02 -2.726033348668E+02 0.000000000000E+00 0.000000000000E+00 0.000000000000E+00 -1.627536770914E-01 -3.012214786598E-01 -3.016441053128E-01 1.937834739483E+02 2.116282027773E+02 2.315288664555E+03
 1.687534147710E-05 7.149098695777E-06 -9.255491623679E-03 -1.932620369990E-04 -7.279703904076E-04 6.351201596297E-05 0.000000000000E+00 0.000000000000E+00 0.000000000000E+00 1.666785978438E-01 -1.214713683140E-01 1.812153795752E-01 5.832450734763E-05 -2.099554495926E-04 -2.459570064015E-04 8.074875853491E-04 -5.164508088964E-04 4.675812333631E-02 -1.322168240019E-03 3.579441147918E-03 -1.211347460597E+00 0.000000000000E+00 0.000000000000E+00 0.000000000000E+00 1.694248470206E-01 1.187897422043E-01 1.964011615453E-01 2.884928412239E-05 -1.177841277612E-04 -7.863885779335E-05 5.204171931828E-04
 -4.690618775120E-05 -1.987141807656E-05 2.572628402330E-02 5.371853011069E-04 2.023444435546E-03 -1.765360747964E-04 0.000000000000E+00 0.000000000000E+00 0.000000000000E+00 -4.632947792600E-01 3.376381340943E-01 -5.037007772136E-01 -1.621170330601E-04 5.835858048469E-04 6.836546411015E-04 -2.244468020784E-03 1.435511017021E-03 -1.299674625893E-01 3.675058770762E-03 -9.949306137389E-03 3.367024690779E+00 0.000000000000E+00 0.000000000000E+00 0.000000000000E+00 -4.709281702450E-01 -3.301843674283E-01 -5.459107165625E-01 -8.018859584969E-05 3.273891919980E-04 2.185821859191E-04 -1.446535858579E-03 4.020747234268E-03
 1.560561933496E-02 6.611191423046E-03 -8.559096669722E+00 -1.787207556895E-01 -6.731969729465E-01 5.873329115497E-02 0.000000000000E+00 0.000000000000E+00 0.000000000000E+00 1.541374882852E+02 -1.123317081659E+02 1.675805040821E+02 5.393609728142E-02 -1.941581347013E-01 -2.274508886162E-01 7.467311930704E-01 -4.775923936003E-01 4.323998270458E+01 -1.222686621098E+00 3.310119446300E+00 -1.120204137979E+03 0.000000000000E+00 0.000000000000E+00 0.000000000000E+00 1.566771061833E+02 1.098518510132E+02 1.816236885150E+02 2.667862731615E-02 -1.089219002789E-01 -7.272197017910E-02 4.812603420915E-01 -1.337696661960E+00 4.450497022466E+02
 -9.557733782013E-05 -4.049054782583E-05 5.242058365504E-02 -9.930961543998E-01 4.429696379538E-01 -2.585347583147E-01 0.000000000000E+00 0.000000000000E+00 0.000000000000E+00 1.838624823648E-01 -9.600653766726E-03 -4.216974816603E-01 -5.993405712871E+02 4.115015450004E+02 3.769660703209E+02 -3.367472775849E-01 2.153759476403E-01 -1.949958243838E+01 -1.276703912527E+00 1.852207277193E+01 -6.634010598069E-02 0.000000000000E+00 0.000000000000E+00 0.000000000000E+00 -5.456603779340E+02 3.828769434002E+02 -4.087752321038E+02 -3.148219997277E-01 7.842307623852E-01 4.826398825329E-01 -2.613719195335E-04 7.265014664841E-04 -2.417059640910E-01 3.549447554492E+03
 -7.412268262881E-06 -3.140146078997E-06 4.065351027820E-03 -4.329091724589E-01 -1.185177001539E-01 7.738613810672E-01 0.000000000000E+00 0.000000000000E+00 0.000000000000E+00 6.065161263669E-02 1.985865496906E-01 2.313544716309E-01 4.125611971412E+02 -2.842284826923E+02 -2.592282995424E+02 2.053809368086E-01 -1.313570051988E-01 1.189272423312E+01 1.844266574753E+01 -1.118606726216E+03 4.019120367988E+01 0.000000000000E+00 0.000000000000E+00 0.000000000000E+00 3.822773251204E+02 -2.682657198509E+02 2.866711551617E+02 -1.096656336311E-01 -2.325438964308E-01 -5.914109838764E-01 -1.475249702419E-04 4.100559364411E-04 -1.364250039693E-01 -8.631819729891E+00 3.919109351934E+03
 -3.966312292854E-04 -1.680295363407E-04 2.175373473374E-01 -2.709269596633E-01 -2.207299241356E-01 -5.612249838233E-01 0.000000000000E+00 0.000000000000E+00 0.000000000000E+00 -6.799734485833E-02 1.159350606792E-01 3.874270975378E-01 3.766963904350E+02 -2.585907349505E+02 -2.375225245716E+02 -1.934010459415E+01 1.236949377677E+01 -1.119902042283E+03 -9.828012237011E-01 3.987665433676E+01 -1.440088574614E+00 0.000000000000E+00 0.000000000000E+00 0.000000000000E+00 -4.089800589173E+02 2.870213772273E+02 -3.055298982470E+02 1.090457094854E-01 -1.013954893796E+00 -7.446396062667E-01 7.141944701771E-05 -1.985153305163E-04 6.604575704649E-02 -3.123699645164E+02 -5.740364988046E+02 3.735427171048E+03
 0.000000000000E+00 0.000000000000E+00 0.000000000000E+00 0.000000000000E+00 0.000000000000E+00 0.000000000000E+00 0.000000000000E+00 0.000000000000E+00 0.000000000000E+00 0.000000000000E+00 0.000000000000E+00 0.000000000000E+00 0.000000000000E+00 0.000000000000E+00 0.000000000000E+00 0.000000000000E+00 0.000000000000E+00 0.000000000000E+00 0.000000000000E+00 0.000000000000E+00 0.000000000000E+00 0.000000000000E+00 0.000000000000E+00 0.000000000000E+00 0.000000000000E+00 0.000000000000E+00 0.000000000000E+00 0.000000000000E+00 0.000000000000E+00 0.000000000000E+00 0.000000000000E+00 0.000000000000E+00 0.000000000000E+00 0.000000000000E+00 0.000000000000E+00 0.000000000000E+00 0.000000000000E+00
 0.000000000000E+00 0.000000000000E+00 0.000000000000E+00 0.000000000000E+00 0.000000000000E+00 0.000000000000E+00 0.000000000000E+00 0.000000000000E+00 0.000000000000E+00 0.000000000000E+00 0.000000000000E+00 0.000000000000E+00 0.000000000000E+00 0.000000000000E+00 0.000000000000E+00 0.000000000000E+00 0.000000000000E+00 0.000000000000E+00 0.000000000000E+00 0.000000000000E+00 0.000000000000E+00 0.000000000000E+00 0.000000000000E+00 0.000000000000E+00 0.000000000000E+00 0.000000000000E+00 0.000000000000E+00 0.000000000000E+00 0.000000000000E+00 0.000000000000E+00 0.000000000000E+00 0.000000000000E+00 0.000000000000E+00 0.000000000000E+00 0.000000000000E+00 0.000000000000E+00 0.000000000000E+00 0.000000000000E+00
 0.000000000000E+00 0.000000000000E+00 0.000000000000E+00 0.000000000000E+00 0.000000000000E+00 0.000000000000E+00 0.000000000000E+00 0.000000000000E+00 0.000000000000E+00 0.000000000000E+00 0.000000000000E+00 0.000000000000E+00 0.000000000000E+00 0.000000000000E+00 0.000000000000E+00 0.000000000000E+00 0.000000000000E+00 0.000000000000E+00 0.000000000000E+00 0.000000000000E+00 0.000000000000E+00 0.000000000000E+00 0.000000000000E+00 0.000000000000E+00 0.000000000000E+00 0.000000000000E+00 0.000000000000E+00 0.000000000000E+00 0.000000000000E+00 0.000000000000E+00 0.000000000000E+00 0.000000000000E+00 0.000000000000E+00 0.000000000000E+00 0.000000000000E+00 0.000000000000E+00 0.000000000000E+00 0.000000000000E+00 0.000000000000E+00
 -1.407020558687E-02 -5.960726101274E-03 7.716979838867E+00 -9.333596555294E-01 -1.501050949796E-01 -8.640898789156E-01 0.000000000000E+00 0.000000000000E+00 0.000000000000E+00 -1.759159921931E+00 1.301662296066E+01 -5.728492904650E+01 -1.744380874515E-01 -3.512831808217E-02 3.094793090809E-01 -9.858023425547E-02 6.304968973663E-02 -5.708356184631E+00 -5.552656599182E+02 -3.935096868519E+02 3.979634208205E+02 0.000000000000E+00 0.000000000000E+00 0.000000000000E+00 1.072574301620E+02 8.350656870869E+01 -3.781503946423E+00 -3.291690129236E-01 9.113610954281E-02 -7.781797370670E-01 -1.602514002413E-01 4.454299355847E-01 -1.481938811996E+02 2.073722868241E-01 1.909995938150E-01 1.938179757717E-02 0.000000000000E+00 0.000000000000E+00 0.000000000000E+00 5.916947910217E+02
 -9.463007701912E-03 -4.008924863043E-03 5.190104664769E+00 3.447356924335E-01 6.605335432504E-01 -6.224161107177E-02 0.000000000000E+00 0.000000000000E+00 0.000000000000E+00 -1.092331975098E+01 2.029714238436E+01 -5.047571511954E+01 -2.477969090361E-01 -6.645601397717E-02 2.510529309812E-01 4.591260020829E-02 -2.936466138468E-02 2.658600654897E+00 -3.941209302658E+02 -2.789883013747E+02 2.825836604135E+02 0.000000000000E+00 0.000000000000E+00 0.000000000000E+00 6.848408748742E+01 7.187658375765E+01 -2.099947668053E+00 2.383739968516E-01 1.345152255582E-01 9.559224375548E-02 -1.176669892560E-01 3.270635973589E-01 -1.088135754237E+02 7.791922186190E-01 -1.139867368829E-01 -2.847403259439E-01 0.000000000000E+00 0.000000000000E+00 0.000000000000E+00 1.545559460722E+02 3.315255307258E+02
 8.464583058507E-03 3.585950529416E-03 -4.642506209565E+00 -4.611770604292E-01 -5.265736015097E-01 -1.617998071300E-02 0.000000000000E+00 0.000000000000E+00 0.000000000000E+00 5.362575048964E+01 -4.291145461760E+01 6.534408573156E+01 -2.077736396840E-01 -6.965354456942E-01 -4.958015040586E-01 9.786424579113E-02 -6.259175969748E-02 5.666896380752E+00 3.992759906980E+02 2.835852674381E+02 -2.863234376835E+02 0.000000000000E+00 0.000000000000E+00 0.000000000000E+00 1.035910484330E+01 -3.846887415992E+00 4.670975416194E+01 1.967028036025E-01 4.828624833659E-01 -9.670940788664E-02 1.848928301551E-01 -5.139225073980E-01 1.709812586062E+02 -8.228849569167E-01 -1.025008409303E+00 2.514777162359E-01 0.000000000000E+00 0.000000000000E+00 0.000000000000E+00 1.198569349627E+02 -8.309315045110E+01 8.487724417237E+02
 3.888771742630E-05 1.647445951314E-05 -2.132845390958E-02 -5.244213936030E+02 3.871606086770E+02 4.034259778299E+02 0.000000000000E+00 0.000000000000E+00 0.000000000000E+00 -7.173668899235E-02 -6.856666887349E-02 -3.291010737889E-02 7.505120601150E-04 -2.294101331826E-01 -4.318910504370E-02 5.229446621383E-04 -3.344635864002E-04 3.028146989990E-02 -5.609435943841E+02 3.936973041580E+02 -3.994414169042E+02 0.000000000000E+00 0.000000000000E+00 0.000000000000E+00 -3.461178874122E-01 -9.279569555812E-02 2.013419151260E-02 2.819548505100E-01 -5.927825110778E-02 -3.548761069705E-03 2.381865056511E-05 -6.620559927052E-05 2.202650502190E-02 -5.681832473513E+02 -4.071936097667E+02 -3.845034150498E+02 0.000000000000E+00 0.000000000000E+00 0.000000000000E+00 -3.200386723421E-01 -4.143826886102E-01 5.108650681485E-01 2.185695324393E+03
 -4.507472073413E-04 -1.909553223858E-04 2.472179308256E-01 3.871190206265E+02 -2.865344981272E+02 -2.980146766963E+02 0.000000000000E+00 0.000000000000E+00 0.000000000000E+00 -6.224693526223E-02 -4.878430643684E-02 -4.342252246696E-01 2.106473388705E-01 6.251425160245E-02 8.581527786502E-01 1.007947128401E-03 -6.446602018814E-04 5.836587088317E-02 3.930257094908E+02 -2.755757913921E+02 2.790288242793E+02 0.000000000000E+00 0.000000000000E+00 0.000000000000E+00 2.380890403058E-02 2.045485273713E-01 -5.014809811681E-01 7.900455100794E-02 3.473841720726E-01 9.294176098613E-01 1.312273634370E-04 -3.647556024760E-04 1.213536498154E-01 -4.068193307106E+02 -2.923861623469E+02 -2.761247469783E+02 0.000000000000E+00 0.000000000000E+00 0.000000000000E+00 4.853441277676E-02 1.070595160094E-01 -5.735965627060E-01 2.098930737194E+01 3.385878057658E+03
 -2.001268794121E-04 -8.478209549339E-05 1.097620844345E-01 4.034383391517E+02 -2.984353282354E+02 -3.106463677407E+02 0.000000000000E+00 0.000000000000E+00 0.000000000000E+00 1.208950346373E-02 -1.075409640733E-01 4.983534989239E-03 2.074694855319E-01 3.116384198666E-02 -1.911710894938E-02 -4.006607435066E-03 2.562535558828E-03 -2.320053558817E-01 -4.001517273148E+02 2.791690948845E+02 -2.840548161833E+02 0.000000000000E+00 0.000000000000E+00 0.000000000000E+00 2.200587176662E-01 2.586766933215E-01 5.234696850241E-02 1.533900972233E-01 -2.642338563659E-01 1.406247515485E-01 -8.457620768470E-06 2.350854637422E-05 -7.821258631771E-03 -3.850711051197E+02 -2.755745432892E+02 -2.595113630091E+02 0.000000000000E+00 0.000000000000E+00 0.000000000000E+00 -1.071840709552E-01 9.680276707288E-02 -1.454725275923E-01 3.910622526450E+00 -2.397502847277E+00 2.272213750809E+03
 -2.444883127349E-05 -1.035754494259E-05 1.340926661352E-02 -1.321058286552E-01 -5.629314686995E-02 1.212635673394E+01 0.000000000000E+00 0.000000000000E+00 0.000000000000E+00 1.998824750977E-01 -1.533658674286E-01 1.140828128328E-01 1.864428092237E-04 -8.316435480448E-05 -3.478219380921E-04 2.746453388680E-03 -1.756569512542E-03 1.590352701581E-01 1.061768852576E-03 -2.244012740787E-03 -1.476137187812E-03 0.000000000000E+00 0.000000000000E+00 0.000000000000E+00 2.779991125351E-01 -7.352457074283E-02 1.831713519401E-01 -9.459065950827E-04 -6.908565033010E-04 2.246665895634E-04 1.609897772542E-04 -4.474823059526E-04 1.488767017875E-01 1.137081482912E-04 5.087671692449E-03 -9.286744827241E-04 0.000000000000E+00 0.000000000000E+00 0.000000000000E+00 -1.603544914773E-01 2.545595422716E-02 -9.200285701560E-02 2.628077164161E-04 7.571012631908E-04 -2.441456008050E-04 5.942080780664E-02
 -1.100668789247E-05 -4.662892194728E-06 6.036755329159E-03 -5.947309335646E-02 -2.534276960530E-02 5.459198533880E+00 0.000000000000E+00 0.000000000000E+00 0.000000000000E+00 8.998565182793E-02 -6.904420981366E-02 5.135926133648E-02 8.393521097052E-05 -3.743999403781E-05 -1.565869334165E-04 1.236433550638E-03 -7.907949533337E-04 7.159653412243E-02 4.780006963741E-04 -1.010238386788E-03 -6.645463388812E-04 0.000000000000E+00 0.000000000000E+00 0.000000000000E+00 1.251531998332E-01 -3.310023262634E-02 8.246242444454E-02 -4.258403418571E-04 -3.110186260137E-04 1.011432818006E-04 7.247643915140E-05 -2.014533138182E-04 6.702321974848E-02 5.119059005626E-05 2.290433182337E-03 -4.180825688847E-04 0.000000000000E+00 0.000000000000E+00 0.000000000000E+00 -7.219043806651E-02 1.146008739842E-02 -4.141902412672E-02 1.183141426258E-04 3.408415401833E-04 -1.099125924801E-04 2.675082005068E-02 1.204302667362E-02
 2.258600617341E-03 9.568374512378E-04 -1.238757694083E+00 1.220403146544E+01 5.200401395481E+00 -1.120241556703E+03 0.000000000000E+00 0.000000000000E+00 0.000000000000E+00 -1.846528681070E+01 1.416804913816E+01 -1.053905230111E+01 -1.722372081109E-02 7.682782911005E-03 3.213204080437E-02 -2.537193393738E-01 1.622731549434E-01 -1.469179263990E+01 -9.808697025542E-02 2.073035109518E-01 1.363666150900E-01 0.000000000000E+00 0.000000000000E+00 0.000000000000E+00 -2.568175796088E+01 6.792252726189E+00 -1.692150123428E+01 8.738353157674E-02 6.382182065862E-02 -2.075486113046E-02 -1.487235141118E-02 4.133873726593E-02 -1.375333678750E+01 -1.050444052128E-02 -4.700027701469E-01 8.579161664318E-02 0.000000000000E+00 0.000000000000E+00 0.000000000000E+00 1.481366325419E+01 -2.351639360152E+00 8.499290102178E+00 -2.427836586132E-02 -6.994155922236E-02 2.255434619882E-02 -5.489336962315E+00 -2.471259996234E+00 5.071088966662E+02
 -1.451410591835E-05 -6.148780801336E-06 7.960442515142E-03 3.412624087712E+00 -8.447702617502E+00 1.146914794984E+00 0.000000000000E+00 0.000000000000E+00 0.000000000000E+00 -5.335013993678E-02 -1.034114192488E-01 -1.966014346645E-01 -9.175714251928E-01 1.245958445113E+00 -2.709877827862E-01 3.472200902166E-03 -2.220741218949E-03 2.010601784815E-01 -9.592600109142E-01 4.463549329856E-02 8.922367521845E-01 0.000000000000E+00 0.000000000000E+00 0.000000000000E+00 1.126921492665E-01 1.689085816069E-01 -3.138565162808E-01 1.263185392515E+00 5.350492181603E-01 1.141323588701E+00 -3.034723960123E-04 8.435226750211E-04 -2.806387472077E-01 2.587074776892E+00 -7.707270604465E-01 -1.003828863812E+00 0.000000000000E+00 0.000000000000E+00 0.000000000000E+00 -5.547424752527E+02 3.919070859648E+02 -4.012334731370E+02 -5.322262124633E+02 -3.942562071409E+02 3.973708948357E+02 3.232874732435E-03 1.455416939049E-03 -2.986552929580E-01 4.354823900270E+03
 7.504166555596E-04 3.179078029818E-04 -4.115753793325E-01 -1.176383927972E+01 -1.120686409241E+03 -1.208805456618E+01 0.000000000000E+00 0.000000000000E+00 0.000000000000E+00 -8.407674216167E-03 1.967285217148E-01 -8.857824551715E-01 6.622242405521E-01 -1.187818711029E+00 1.085608610103E+00 -9.980930098214E-03 6.383577303585E-03 -5.779526137751E-01 2.087054779918E+00 -1.524833694561E+00 -2.179975460406E+00 0.000000000000E+00 0.000000000000E+00 0.000000000000E+00 6.424439920405E-01 -2.270310917997E-01 -6.815417016853E-01 -7.241015713735E-01 -2.669558007374E-01 9.457380824453E-01 5.348549199209E-04 -1.486666526275E-03 4.946117559187E-01 -8.875861378666E-01 1.635921328165E+00 8.855696826193E-01 0.000000000000E+00 0.000000000000E+00 0.000000000000E+00 3.923936048635E+02 -2.770993843508E+02 2.833622511584E+02 -3.946637710850E+02 -2.924970297324E+02 2.942887324301E+02 -6.644436599494E-03 -2.991277540177E-03 6.138178319294E-01 -2.123453703999E+00 4.508879230846E+03
 -3.004702536969E-05 -1.272917352056E-05 1.647966602634E-02 -7.128634961097E-01 -7.499375698042E+00 -1.030409664169E+00 0.000000000000E+00 0.000000000000E+00 0.000000000000E+00 -2.543578766749E-01 -4.482525792988E-02 -2.644602230014E-01 -8.382419738975E-02 -1.664029372643E+00 2.848288798011E-01 4.392428934391E-05 -2.809298269548E-05 2.543466148448E-03 -4.963442946121E-01 -7.372341577940E-01 9.286296475147E-01 0.000000000000E+00 0.000000000000E+00 0.000000000000E+00 6.739333134941E-02 -1.536451843513E-01 -3.376682211561E-01 -2.251253694419E-02 -7.412807668739E-01 7.574974770876E-02 -2.817401613984E-04 7.831164142984E-04 -2.605416735490E-01 -7.155971150837E-01 3.606165150726E-01 1.100187609688E+00 0.000000000000E+00 0.000000000000E+00 0.000000000000E+00 -4.002525467241E+02 2.830772102640E+02 -2.894036182708E+02 3.967696846503E+02 2.942952681388E+02 -2.967611988553E+02 -2.590731257062E-03 -1.166328567643E-03 2.393336168551E-01 1.069957130140E+01 -6.651982938160E+00 3.461221072942E+03
 0.000000000000E+00 0.000000000000E+00 0.000000000000E+00 0.000000000000E+00 0.000000000000E+00 0.000000000000E+00 0.000000000000E+00 0.000000000000E+00 0.000000000000E+00 0.000000000000E+00 0.000000000000E+00 0.000000000000E+00 0.000000000000E+00 0.000000000000E+00 0.000000000000E+00 0.000000000000E+00 0.000000000000E+00 0.000000000000E+00 0.000000000000E+00 0.000000000000E+00 0.000000000000E+00 0.000000000000E+00 0.000000000000E+00 0.000000000000E+00 0.000000000000E+00 0.000000000000E+00 0.000000000000E+00 0.000000000000E+00 0.000000000000E+00 0.000000000000E+00 0.000000000000E+00 0.000000000000E+00 0.000000000000E+00 0.000000000000E+00 0.000000000000E+00 0.000000000000E+00 0.000000000000E+00 0.000000000000E+00 0.000000000000E+00 0.000000000000E+00 0.000000000000E+00 0.000000000000E+00 0.000000000000E+00 0.000000000000E+00 0.000000000000E+00 0.000000000000E+00 0.000000000000E+00 0.000000000000E+00 0.000000000000E+00 0.000000000000E+00 0.000000000000E+00 0.000000000000E+00
 0.000000000000E+00 0.000000000000E+00 0.000000000000E+00 0.000000000000E+00 0.000000000000E+00 0.000000000000E+00 0.000000000000E+00 0.000000000000E+00 0.000000000000E+00 0.000000000000E+00 0.000000000000E+00 0.000000000000E+00 0.000000000000E+00 0.000000000000E+00 0.000000000000E+00 0.000000000000E+00 0.000000000000E+00 0.000000000000E+00 0.000000000000E+00 0.000000000000E+00 0.000000000000E+00 0.000000000000E+00 0.000000000000E+00 0.000000000000E+00 0.000000000000E+00 0.000000000000E+00 0.000000000000E+00 0.000000000000E+00 0.000000000000E+00 0.000000000000E+00 0.000000000000E+00 0.000000000000E+00 0.000000000000E+00 0.000000000000E+00 0.000000000000E+00 0.000000000000E+00 0.000000000000E+00 0.000000000000E+00 0.000000000000E+00 0.000000000000E+00 0.000000000000E+00 0.000000000000E+00 0.000000000000E+00 0.000000000000E+00 0.000000000000E+00 0.000000000000E+00 0.000000000000E+00 0.000000000000E+00 0.000000000000E+00 0.000000000000E+00 0.000000000000E+00 0.000000000000E+00 0.000000000000E+00
 0.000000000000E+00 0.000000000000E+00 0.000000000000E+00 0.000000000000E+00 0.000000000000E+00 0.000000000000E+00 0.000000000000E+00 0.000000000000E+00 0.000000000000E+00 0.000000000000E+00 0.000000000000E+00 0.000000000000E+00 0.000000000000E+00 0.000000000000E+00 0.000000000000E+00 0.000000000000E+00 0.000000000000E+00 0.000000000000E+00 0.000000000000E+00 0.000000000000E+00 0.000000000000E+00 0.000000000000E+00 0.000000000000E+00 0.000000000000E+00 0.000000000000E+00 0.000000000000E+00 0.000000000000E+00 0.000000000000E+00 0.000000000000E+00 0.000000000000E+00 0.000000000000E+00 0.000000000000E+00 0.000000000000E+00 0.000000000000E+00 0.000000000000E+00 0.000000000000E+00 0.000000000000E+00 0.000000000000E+00 0.000000000000E+00 0.000000000000E+00 0.000000000000E+00 0.000000000000E+00 0.000000000000E+00 0.000000000000E+00 0.000000000000E+00 0.000000000000E+00 0.000000000000E+00 0.000000000000E+00 0.000000000000E+00 0.000000000000E+00 0.000000000000E+00 0.000000000000E+00 0.000000000000E+00 0.000000000000E+00