#BIOSYM hessian 1
@Type: Hessian Update
@Units
 distance: 	A
 energy: 	Kcal/Mol
#header
@natom 88

#label
P1      P2      P3      P4      A5      A6      A7      A8      A9      A10     P11     P12     P13     P14     A15     A16     A17     A18     A19     A20     O21     O22     P23     P24     P25     P26     A27     A28     A29     A30     A31     A32     P33     P34     P35     P36     A37     A38     A39     A40     A41     A42     O43     O44     P45     P46     P47     P48     A49     A50     A51     A52     A53     A54     P55     P56     P57     P58     A59     A60     A61     A62     A63     A64     O65     O66     P67     P68     P69     P70     A71     A72     A73     A74     A75     A76     P77     P78     P79     P80     A81     A82     A83     A84     A85     A86     O87     O88

#element
Pd Pd Pd Pd Ag Ag Ag Ag Ag Ag Pd Pd Pd Pd Ag Ag Ag Ag Ag Ag O  O  Pd Pd Pd Pd Ag Ag Ag Ag Ag Ag Pd Pd Pd Pd Ag Ag Ag Ag Ag Ag O  O  Pd Pd Pd Pd Ag Ag Ag Ag Ag Ag Pd Pd Pd Pd Ag Ag Ag Ag Ag Ag O  O  Pd Pd Pd Pd Ag Ag Ag Ag Ag Ag Pd Pd Pd Pd Ag Ag Ag Ag Ag Ag O  O 

#matrix
264
 1.403548259625E+01
 2.816652920212E-02 1.450668849129E+01
 -1.849023792462E+01 -2.828807048747E+00 2.687328525524E+02
 -4.266260413881E+00 1.124074834534E-01 -1.607187587055E+00 3.226204599040E+03
 5.309310360989E-01 1.588513328383E+01 -2.506877596013E+01 -1.878102748164E+01 3.985883510899E+03
 -2.076258847816E+00 -2.306649749156E+01 -2.925365537809E+01 3.755850512249E+02 -5.132965556534E+02 3.696399531756E+03
 -7.175383019582E-01 8.188208474629E-01 -8.299095906905E+00 3.805967753724E-01 2.039007950517E-01 7.827834801943E-01 2.231427975719E+00
 4.881743186275E-01 -4.416595133466E-01 3.278684720243E+00 -4.725633047248E-01 -7.790132865668E-01 -1.100945653875E+00 5.193532410955E-03 4.801364042508E-01
 -1.003103254764E+00 5.101923175355E-01 5.829442394955E-01 7.399524499594E-01 3.461803835491E-01 4.426061180668E-01 8.560763170820E-02 1.577717303401E-02 5.950720912463E-01
 4.195074092839E+01 1.751083858968E+01 -4.933777883911E+01 -2.988704613998E+01 4.242233672036E+01 5.887946575136E+01 -9.312169298888E+00 -8.329085200760E-01 5.457746238557E-01 5.110415276843E+02
 1.300479991195E+01 2.313114429147E+01 -3.566785080161E+01 1.389484863050E+01 2.578763294259E+01 -1.390936436448E+01 -4.408286619676E-01 -3.395543262714E+00 8.969920397354E-02 8.691279151097E+01 2.671289196270E+02
 -1.098240864541E+01 -6.193241243050E+00 1.768862817843E+02 9.280693547948E+01 -5.178818370845E+01 -5.341143786597E+01 -5.034377558982E-01 3.973476433180E+00 1.843597052035E+00 5.940389108736E+01 -5.814373975945E+01 6.979972324626E+02
 2.032638645024E+01 -1.867484996518E+01 -5.811261480900E+00 9.184964055745E+00 1.184070107943E+01 6.107124499273E+00 2.542490556216E+01 -1.681104386445E+00 -9.144123217703E-01 1.279985516645E+01 7.194506069825E+00 -1.222262543042E+01 2.687450651444E+03
 -1.791862258219E+01 8.239318941100E+00 1.583701314432E+01 1.183738723275E+01 -2.171204441005E+00 6.748911834552E+00 -1.804572595776E+00 -1.049688633751E+00 -1.043630989097E-01 -2.241862482903E+00 -7.351890811637E+00 6.492522579828E+01 2.146195287661E+01 3.795147153027E+03
 -1.364358790096E+01 1.035553914970E+01 -1.190704686477E+01 7.254479538911E+00 6.859755832861E+00 3.731269487355E+00 -2.476649345745E+00 1.733720230627E-02 -4.197365472757E+00 -5.768571776251E+00 4.074258884652E+01 -7.690688873029E+01 4.264335933436E+01 -1.399575972422E+01 2.857063727391E+03
 -2.885782795741E-01 7.014948026504E-02 4.770946813278E-02 -1.493071880164E-01 -3.428271210636E-01 -3.846978424537E-01 -1.202293754910E+00 8.135941069141E-01 1.147203361796E+00 -7.340076997924E-01 -2.036185779578E+00 -4.083776091264E-01 2.063537779272E+01 -2.080369025765E+01 1.179423755152E+01 1.816991655864E+01
 -8.209845378720E-02 -1.920272047763E+00 4.312152430237E+00 -6.800531542048E-01 -1.628556492681E+00 -6.631352139079E-02 6.761765424893E-01 -4.067108258104E-01 -7.161016505152E-01 -4.584261275405E+00 7.742254413057E+00 9.531214255820E+00 -1.894648402821E+01 1.035448035541E+01 -9.228242580918E+00 5.594442073695E-02 2.031572204509E+01
 3.875355822419E+00 -2.167058420079E+00 -9.698735107268E+00 -8.110421980557E-01 1.640101075217E-02 5.287466720222E-01 6.800796438936E+00 -2.807385180311E+00 2.115679454684E-01 9.738222679781E-01 -5.056659329906E-01 2.569651439245E+01 4.111328770615E+00 -1.192067550010E+01 -1.830175300617E+01 3.902915832778E+00 -3.657420749098E+00 2.052279355328E+02
 -1.261709908975E+01 4.095271725228E-01 -1.855283080834E+01 -1.818911690268E+00 3.221991265574E+00 7.943785496613E+00 1.910646635428E+01 1.272256411216E+01 -2.039513355874E+01 -6.453374497942E+02 2.320791853549E+02 -2.361713591213E+02 -5.697253068816E+02 -3.484200142317E+02 3.633709143900E+02 2.694698918696E+01 1.017460611261E+00 6.575077724183E+00 5.194848775196E+03
 2.034249531959E-01 4.490795212570E+01 9.483856273043E-01 3.649002156423E-04 -2.815424630237E+00 -4.211100195117E+00 1.213755388407E+01 9.611166839406E+00 -1.570340147925E+01 2.546360232270E+02 -4.111020209180E+02 1.845787277615E+02 -3.516843276715E+02 -3.688385572887E+02 2.713436579700E+02 -1.636936677191E+00 -3.471602094186E+00 -6.407048705172E+01 -4.085215918661E+01 5.689608026313E+03
 -8.155285386546E+00 6.691060849748E-01 -2.796257637351E+00 -5.093777937725E+00 2.291316171768E+00 1.105143481608E+01 -1.924320871426E+01 -1.363533353740E+01 6.569592039460E-01 -1.675035679020E+02 1.269087928379E+02 -4.285834755914E+02 4.016103794995E+02 2.911316746037E+02 -4.563039216943E+02 3.184902281504E+00 -4.082537191044E+01 -3.021408354491E+01 -5.239813323914E+01 -1.960927429298E+01 6.321050621570E+03
 -7.987953767518E-01 -7.377991435999E-01 -7.354832710030E+00 8.084947127441E+00 -6.962989702224E+00 -4.947254148572E-01 9.613417429399E-01 9.206056355537E-03 -1.191409026342E-02 -1.922602428420E+01 -3.085688375778E+00 2.089278349727E+00 1.924658640887E-01 -1.251659987152E-01 -1.565109190823E-01 3.121172680734E-02 3.766383147714E-01 1.795258218590E+00 2.002433138197E+01 -1.199670475880E+01 -2.002533293633E+01 1.728104771315E+00
 -3.947554402899E-01 -4.982786035654E-01 -3.933148440454E+00 -5.709619167933E+00 4.048475306235E+00 -9.739539322613E-02 8.899609845589E-02 -5.336940169755E-02 5.863418595572E-02 -2.570779018126E+00 -5.300641995878E+00 -1.446322304035E+00 -4.483966580385E-02 5.096686225898E-01 -1.296037667894E-01 2.308057972355E-02 -4.062547102014E-01 -5.555340525964E-01 -1.228340561875E+01 8.991071822436E+00 1.368854394511E+01 2.410482673587E-01 3.556032142049E-01
 -1.209142309879E+00 -5.333788845045E-01 3.369260667931E-01 1.863986600458E+01 -1.500647771277E+01 9.226380709518E-01 2.671161268199E-02 -6.005111640647E-02 1.572648790564E-01 2.511058840429E+00 -2.193099424095E+00 5.129639812337E+00 -1.179880712730E-01 8.626230827539E-01 -9.755458747681E-01 -2.923591705147E-03 -5.401734367870E-02 -1.747505102989E-01 -2.028011471781E+01 1.518849915961E+01 1.204290392579E+00 4.224098861764E-03 3.825361580736E-02 5.964183423029E-01
 4.144572439281E+01 -8.373630836805E+00 -5.829162964906E+01 1.780044028067E+00 -5.011785204090E+00 -4.649220378663E+00 -2.469308878342E+01 1.769995187164E-01 -1.633461969794E+00 3.005154154186E+02 1.311923813935E+01 1.467855365316E+00 -1.968859029498E+02 4.630062637531E+00 -1.117063539169E+01 4.337961085424E+01 -8.839510713550E+00 3.188030618332E+01 -6.445822961939E+02 -2.620431790787E+02 -1.875269256849E+02 -9.951549888453E+00 -2.996298246084E-01 -2.056518461722E-01 7.175080315086E+02
 -1.425791190731E+01 3.161677314891E+01 3.008603828764E+01 2.002490551869E+01 4.135334172462E+01 2.232273275738E+00 -4.012872820823E-01 -7.546457846273E+00 -8.504685882633E-01 2.529334720800E+01 1.612848115032E+02 2.709287060654E+01 1.125293849210E+01 -1.991646298931E+02 1.149965795163E+01 -1.558590683489E+01 3.777258281494E+01 -1.936898435760E+01 -2.328625005145E+02 -4.094880421275E+02 -1.260922745999E+02 -1.240046454422E+00 -3.587272439938E+00 -4.224474234001E-01 2.444539607498E+01 4.164707455567E+02
 -1.067221780454E+01 -9.635115146772E+00 1.946382134410E+02 7.015184634972E+00 7.168157672463E+00 -1.249819582926E+01 1.252534383330E+00 -8.625603675750E-01 6.770162602547E+00 -1.746507281276E+00 -5.335922773835E+01 3.298196870953E+02 -3.239134160518E+01 9.985744206773E+00 -1.010871474217E+03 4.617437311414E+00 3.852070954582E+00 1.810264513296E+02 -2.254370883726E+02 -1.811810689417E+02 -4.858450801850E+02 -1.675904894557E-02 -4.401881545284E+00 1.693693116745E+00 -7.142413393608E+01 -2.663734279152E+01 9.170512623751E+02
 2.019771563734E+01 1.995043271442E+01 -6.590470890804E+00 -6.746856086803E+02 3.876308723349E+02 -3.707709108067E+02 3.564990639763E-01 3.130012256752E-01 -1.589667545591E-01 -2.349450564242E+02 2.029409147537E+01 -6.962683605637E+01 -7.990012427883E+01 3.576203298399E+00 -3.251074492735E+00 7.372866397393E-02 -2.197806312720E+00 -7.643552688775E-01 -5.879619085484E+02 3.569577215670E+02 3.952779188617E+02 2.697066021648E+01 1.167932595589E+00 -4.216874226706E-01 1.790839354144E+01 -2.142921879383E+00 -2.449829443262E+00 3.453308368284E+03
 1.821689722008E+01 8.647773369564E+00 -8.948282294895E+00 3.719567484345E+02 -3.402027117785E+02 2.340247611151E+02 -7.628572266440E-01 5.895601925968E-01 -1.451487266131E+00 2.103012418705E+01 -2.111118946485E+02 3.185873242145E+01 1.111040566986E+01 -1.142424720654E+03 -3.734860901156E+01 1.046297658565E+00 -1.733532161326E-01 -5.480048221419E+00 3.552890775961E+02 -3.664683141746E+02 -2.794727545042E+02 4.079029099357E-01 -1.004390037412E+00 -3.762898905213E-02 1.808862606158E-01 -5.437207434229E+00 -8.167941557802E+01 -4.681518086150E+02 4.247413998586E+03
 -1.207281624952E+01 -9.154836971271E+00 -1.436115877982E+01 -3.288253096328E+02 2.180644788487E+02 -3.624840913725E+02 -3.173612850020E-01 1.048734403269E-01 -8.921917998933E-01 -1.613096405622E+01 2.565652161155E+00 -9.495728380486E+02 -4.599638119659E+00 6.143457163286E+01 -1.275137922409E+02 7.905675101813E-01 -1.798726099729E+00 -4.150013114278E+00 3.843008156404E+02 -2.722027017666E+02 -4.499036950374E+02 -8.972412776364E-01 1.888930918368E-01 -4.174489942683E+00 -4.289052121055E-02 -3.723915859980E+01 -8.144743135256E+01 2.721420275130E+02 -1.570081534206E+02 3.082079422180E+03
 1.525254102991E+00 2.905946065396E-01 -3.664425485824E+00 -1.343682808183E+00 4.174265993179E-01 1.980863261342E+00 -1.036723737256E+00 -6.581987668774E-01 1.292102290595E+00 5.231875363638E+01 -1.708715747480E+01 4.259726330068E+00 2.176733669773E+01 2.114778462289E+01 1.248816328901E+01 -1.243187474734E+00 1.118748821541E-01 1.312870890997E+00 -3.270032540472E+02 2.439992303555E+01 -1.451713088125E+01 -1.388091378564E+00 8.174451556692E-01 1.306082308730E+00 4.984018566425E+01 1.366630957878E+01 -1.315140854987E-01 2.210470566657E+01 -2.164529249457E+01 1.108523906164E+01 2.429502288813E+01
 1.740650656158E-01 -4.681971645483E+00 -6.379730264875E-02 9.153187045804E-01 -1.933991421950E+00 -1.540309171155E+00 -9.703844247774E-01 -5.255605144850E-01 5.480697142288E-01 -1.570394490937E+01 3.854315826186E+01 6.826549307254E+00 1.992063223538E+01 9.316563508431E+00 9.613673428326E+00 -2.527368274578E-01 5.686831922322E+00 -8.822348196045E+00 2.334352008456E+01 -3.053132907376E+02 5.706949679027E+00 9.937887671293E-01 -5.967464704916E-01 -6.461369824144E-01 1.175309863456E+01 3.733255826020E+01 -9.312858067473E+00 -2.164557458081E+01 9.559423509388E+00 -9.783001893884E+00 -2.993540105270E+00 2.389029265319E+01
 3.396391710513E+00 -3.551690402076E-01 2.468851638492E+00 2.310057730107E+00 5.670378700878E-01 -3.343505538886E+00 6.986783660553E+00 2.516003868510E+00 3.900548970585E-01 2.821752481239E+01 -2.190725718588E+01 1.695497397614E+02 4.111778274879E+00 8.647481423445E+00 -1.823517895640E+01 9.353706773958E-01 7.672352130773E+00 4.367624961167E+01 5.090420610163E+00 1.884495244588E+00 -8.934943462370E+02 6.547811129257E+00 -2.315751792535E+00 1.773173994811E-01 2.219261454132E+01 1.815683809141E+01 1.736200552983E+02 1.518175845252E+01 -2.038340793852E+01 -1.998701863140E+01 6.000767526592E+00 -6.791972447400E-01 1.940622230869E+02
 9.019634869658E+00 -3.683665668827E+00 -1.854242259750E+01 -2.280340858329E+01 6.316914714653E+00 7.508960017373E+00 1.602819457915E+00 1.428283046519E-01 -3.164802745914E-01 -6.406113264715E+02 -2.360494708763E+02 -2.803785255528E+02 9.749987646880E+00 -9.947047330295E+00 -8.827929489397E+00 1.460225063799E+00 -3.998545865783E-01 2.836483106219E+00 -1.417137708167E+02 1.414236937535E+01 1.845159986984E+01 1.937587970846E+01 1.319894329820E+01 -2.015941510906E+01 -2.502031614444E-02 -2.238411340231E+01 2.278446367242E+00 -6.078609738577E+02 -3.549265470419E+02 3.498776419461E+02 2.655715661625E+01 5.939706317387E-01 9.770069297461E+00 4.988067102014E+03
 -3.520559287745E+00 -1.346929054743E+00 2.909238205066E+00 -3.048842167701E+00 1.319422212641E+01 -3.915273539518E+00 -9.478437014280E-01 -8.073659748335E-01 5.420503858966E-01 -2.319955988803E+02 -3.959758003958E+02 -2.015131858135E+02 -1.183266733048E+01 -3.120405143101E+00 4.011271779617E+00 -4.499303034427E-02 3.128559002795E+00 1.553278616848E-01 -5.888165655603E-02 -1.163630812854E+03 -3.006600382734E+01 1.282614956877E+01 9.696529585908E+00 -1.551320848425E+01 -1.646307415964E+01 2.649316682272E+01 -2.456680943441E+01 -3.456016181458E+02 -3.811328956551E+02 2.561838170482E+02 -2.519095196508E+00 -1.449914132982E+00 -5.985554001625E+01 5.402749224937E+00 5.537911849820E+03
 -1.476187437622E+01 2.541853498476E+00 1.669051786738E+01 -2.579109368496E+00 -1.036487205968E+00 1.188644290551E+01 -1.128198615914E+00 -6.999487744580E-01 4.962200866798E-01 -1.921464189613E+02 -1.370246385370E+02 -4.572781916690E+02 -7.718903151055E+00 6.364991880926E+00 4.911404646323E+00 -5.155107699673E-01 -3.774939669397E-02 -1.689529726642E+00 1.881414980547E+01 -3.490069904299E+01 -1.930616761444E+02 -1.935493623648E+01 -1.333284530578E+01 6.114900219546E-01 1.671469660696E+01 -1.307405060083E+01 -2.429598548925E-01 3.924263736643E+02 2.916423107874E+02 -4.282214510051E+02 2.542388633317E+00 -4.110709036654E+01 -3.649104936591E+01 1.596156504117E+00 5.999672251491E+00 5.059608028367E+03
 -2.673956552837E-01 -4.174546166281E-02 -5.015101585649E-01 -2.126257335097E-01 1.065932630152E-01 5.777418968850E-02 5.176041089367E-02 -3.872854923832E-03 -1.203476092643E-01 -6.533614760110E+00 3.099290879552E+00 -6.284276464868E+00 1.216782044286E+00 1.174063504191E-01 1.405856449261E+00 -1.076991906268E+00 -7.853581475773E-01 -4.850807378677E+00 1.900482527415E+01 -1.380890587286E+01 1.996248120704E+01 1.240739762401E-01 -9.528600445490E-03 -1.331814739768E-01 -8.967554293526E+00 1.665812363439E-01 -8.833220726941E+00 -3.407177069838E-01 6.699162783884E-01 1.295213320825E+00 -1.348218884040E+00 1.008972432876E+00 -4.878461250019E+00 6.027005118766E-01 5.933751905600E-01 2.598745232362E-01 1.126221933044E+00
 5.082841646730E-02 1.347981409849E-01 2.366320645358E-01 3.187371279593E-01 -2.743762289905E-02 2.316291952391E-02 -2.127267827879E-02 7.867836373481E-02 7.564323852559E-03 3.401881271860E+00 -2.847299734122E+00 3.230283121048E+00 -1.324763505879E-01 1.852108676401E-01 -1.245654952212E-02 -8.273076989533E-01 -5.246287045179E-01 -2.974146119022E+00 -1.303910474482E+01 9.504671463626E+00 -1.408741567961E+01 -4.898167749026E-02 4.010295275115E-02 8.126041909188E-02 1.995203958109E-01 -9.595834910036E-01 -1.896363402403E-01 4.502721841245E-01 -3.199505786136E-01 -6.041664737774E-01 8.663920274106E-01 -4.957209435916E-01 2.570782706610E+00 1.056769061838E-02 -7.105001321601E-01 -3.518897643974E-01 -4.888526844077E-02 5.414380307839E-01
 -7.516757382951E-02 -9.375331783381E-02 -3.918042965361E-01 -2.863229851799E-01 -2.719539674080E-02 -3.181391824246E-01 2.617226013539E-01 -7.964348456553E-04 -1.070006530511E-01 -4.945158274281E+00 2.269631246631E+00 -1.377696157207E+00 2.990500059676E-01 -1.989300042935E-02 6.596005079504E-01 -1.289188084131E+00 -6.965075717446E-01 4.354990784539E-01 2.025853862058E+01 -1.487693983693E+01 -7.290051850483E-01 2.352391641507E-01 -6.749825881707E-02 -1.296396893470E-01 -6.508486897021E+00 -7.417755656598E-02 -9.921726331261E-01 -3.681009688692E-01 1.240126765673E-01 9.453366115857E-01 -1.393073575115E+00 6.714953798347E-01 6.404497104872E-01 5.264549192502E-01 2.297800147723E-01 -3.318559460265E-01 -7.888100636672E-02 2.578150279666E-02 6.312868010175E-01
 5.698472062813E-01 -1.277793088566E+00 1.351908829066E+01 -4.702021344140E-01 -1.764454880933E+00 7.547009326519E+00 -8.208200018840E+00 -2.700568032222E+00 3.541699522608E+00 2.159954139846E+02 9.647779692739E+00 -1.138598152577E+00 1.360693420302E+01 1.025164474250E+01 -1.013570567148E+01 -1.838960189743E+00 1.383208427993E+00 -4.947339843305E+00 -6.179056188504E+02 -2.669103775349E+02 1.586024805718E+02 -1.120570330373E+01 -6.769930305601E-01 4.320045442091E+00 1.559441737783E+02 5.896386644634E+01 -3.432236812484E-01 -1.020297390144E+01 -4.003662270565E+00 -1.684117149744E+01 4.290474146023E+01 1.169269282612E+01 -4.235195229277E+01 -6.144248309697E+02 2.321818311623E+02 1.906349518918E+02 -4.613699825623E+00 3.622634972484E-01 -2.766031208701E-01 3.456646484515E+02
 1.922458781297E+00 -4.574367534285E+00 -2.030767032342E+00 -1.070736138787E+00 2.138688616503E+00 2.032010376426E+00 -3.555348157254E+00 -2.606946872711E+00 2.417481908428E+00 3.704466184861E-01 1.008383973285E+02 -1.573033741526E+00 1.580796805372E+01 7.294795620983E+00 -1.086414990396E+01 1.083612611172E+00 9.552185613939E+00 -2.137253966630E+00 -2.514041132232E+02 -4.501537834921E+02 8.858477578787E+01 1.412242247649E-01 -7.271891034023E-01 8.571244872772E-03 7.086306543139E+01 1.003321110024E+02 2.337299257299E+00 -3.360893638498E+00 3.567359415250E+01 -4.708672248398E-01 1.419096062024E+01 3.509755230313E+01 -1.226030815958E+01 2.389297976434E+02 -4.049807822768E+02 -1.133192898058E+02 -1.585604870044E-01 -2.877741973579E+00 -2.165443085334E-01 -6.164352666633E+01 2.204024760867E+02
 3.146681195079E+00 9.154769479262E-01 -1.063059784847E+01 7.271745921619E-01 -2.110999008287E+00 -8.979697593661E+00 7.562907801220E+00 2.478993273369E+00 -1.378045513983E+00 -6.379411398288E+01 -6.786717452872E+00 1.314127569164E+02 5.359685750014E+00 1.070437536274E+00 2.445911822020E+01 2.971585082367E+00 3.821652712300E+00 2.072425053332E+01 2.322799692439E+02 1.475797878133E+02 -4.603244092782E+02 1.043568207736E+01 4.113615871625E-01 -1.558378990412E+00 -5.529783426902E+01 -1.337198689837E+01 6.677395807826E+01 5.745161726626E+00 1.407190561025E+00 -6.096902503883E+00 -8.614701634611E+00 2.247104656873E+00 1.242036353285E+02 2.821160725379E+02 -1.772366941393E+02 -4.301235709226E+02 6.339240596022E-01 2.748052077470E+00 2.687778785580E+00 -6.485826819993E+01 -5.616281724158E+01 2.696278455157E+02
 2.994939308646E-01 7.676062329562E-01 -1.308127726995E+00 2.512189923963E-01 -1.038235003963E+00 -1.767799474455E+00 9.776367701773E-01 -3.717815228428E-01 -4.075743028404E-01 4.479392789209E+00 -6.523614079041E+00 -1.509844324989E+01 -1.757208870302E+01 7.575798528902E-02 -1.366808588516E+01 6.571497068360E+00 1.175311201855E+01 1.297599396741E+01 -3.875764377528E+02 2.719641991425E+02 -3.666874101671E+02 -7.393047805246E-01 2.114814698234E-01 -2.853166859619E-02 -1.872414097293E+01 -5.163121580713E-01 -2.146117095176E+01 -4.928762657939E+00 5.558404988831E+00 -2.768699174530E+00 5.084443895178E+00 -8.551847848337E+00 -6.186025553481E+00 5.148095597764E+00 9.414749981732E+00 7.488914791682E+00 -1.294193675530E+00 1.290840365209E-01 -1.812187094855E-01 9.836944336377E+00 -1.005301959254E+01 1.424575312733E+01 2.308292004535E+03
 -4.362803593045E-01 1.627276768101E-01 -1.440558760102E+00 -1.401899149850E+00 -3.460516739895E-01 -2.837110919092E-01 -2.265156685406E-02 5.923383251779E-02 1.013473348501E-01 3.881453711625E-01 -4.056027467457E+00 4.747027245075E+00 -1.360066716724E+00 5.470627578517E+00 2.255537663977E+00 1.533021049896E+01 6.475893011362E+00 1.097381368206E+01 2.817527892354E+02 -3.558943311028E+02 3.377698640894E+02 -1.787474710536E-01 2.799482280007E-01 4.178006105352E-01 1.115892004640E+01 2.804790840147E+01 1.073747313113E+00 1.542675351199E+00 -2.885342993950E+00 6.608778159042E+00 -1.323068160887E+01 7.301066105272E+00 -7.751393045753E+00 5.506876756553E+00 -6.568008659849E-02 1.181148473950E+01 -5.111246340234E-01 -2.837737069467E-01 -4.980927641487E-01 6.100575901969E+00 -8.701690841458E+00 7.556311511833E+00 -1.019165421412E+03 4.105860363474E+03
 3.023602932889E-01 7.536182425048E-01 -2.707933924927E+00 -5.203291085778E-01 -1.016238883250E+00 -1.689584561442E+00 1.001129191588E+00 -7.480781452011E-03 -1.891227651476E-01 -6.298989970619E+00 -1.381848424372E+01 7.715163780320E+00 9.019667068046E+00 1.126363512861E+00 7.250538144179E+00 -7.357336249054E+00 -4.934231007380E+00 1.297014315371E+01 -3.958526568977E+02 3.498173156071E+02 -6.368261519342E+02 5.180177034168E-01 3.604002466027E-01 5.655998032230E-01 2.007372419900E+00 -5.392934762304E-01 2.561044057309E+00 4.357083985491E-01 4.672301857193E+00 2.825552146785E+01 -5.057786103869E+00 2.539495750901E+00 8.900406163826E+00 8.058749938941E+00 1.081155119106E+01 8.521480593352E+00 -1.947603924488E+00 1.386028913434E-01 -1.078480262639E+00 -7.070309776971E+00 -6.095026475980E+00 5.524235359354E+00 7.324227052608E+02 1.225166068315E+02 1.558396742255E+03
 -1.443734224891E-01 -9.646747659239E-03 3.012602309983E-01 -2.284191448660E-01 -2.104084680938E-01 -7.530502876064E-01 -3.466374787509E-01 4.627741544523E-02 6.823550924744E-02 4.462374785784E-01 5.794779540552E-01 -1.347626321650E+00 2.602512869303E-01 1.155310784781E-01 -1.404803047551E-01 5.008092644884E-01 -6.575038392186E-01 -3.973375079185E+00 -8.076640725333E-01 -2.374088910377E+00 4.335456101873E+00 -1.775462115548E-01 1.593076482514E-02 -7.914733821631E-03 2.614209747175E+00 -2.125861449359E-01 -3.483349804984E+00 5.563745896569E-01 -1.067203366465E-01 8.894517319889E-01 -1.110445166317E+00 1.009394026691E+00 -1.534369483661E+00 -8.143520231193E-01 3.842826617302E-01 3.281476049386E-01 -1.580258719449E+00 1.306113916399E+00 1.418457660784E+00 8.567219327336E-01 -2.121816273884E+00 -1.549268165426E+00 3.106631829860E-01 1.426082638324E+00 4.798112254539E+00 2.041874692777E+01
 -4.478208631459E-02 1.810656028563E-01 3.761700798041E-01 3.221599580287E-01 -1.825932391797E-01 4.138926992983E-01 -6.425185832321E-02 1.702754032432E-01 9.914162078500E-02 1.327833063243E+00 -2.446733972515E+00 2.682722511305E+00 3.666951724938E-01 5.439615365329E-01 -8.518482769944E-01 4.302994546236E-01 -3.577298251304E+00 4.937222701302E-01 -2.404610632037E+00 5.652143206130E+00 -1.280760493723E+01 3.089965129078E-02 2.775411373015E-03 3.728808226132E-02 2.612910754433E+00 -6.159759975310E+00 3.234428145167E+00 -2.550385227060E-01 -3.232411436702E-01 -7.079682269942E-01 1.982807616110E-01 -1.743096454938E+00 2.924788744981E+00 -1.959556458019E-01 -1.496485717689E+00 -7.973873234343E-02 5.366182761394E-01 -2.259273997379E-01 -5.785963673398E-01 -4.260333850276E+00 4.769901294518E+00 1.416177625018E+00 -3.189048904492E+00 5.889038607041E-01 -7.642194223686E-01 -2.858220938299E-01 1.642766143392E+01
 1.762580305897E-01 -4.627175109690E-01 -2.610750189861E+00 -1.809311185297E+00 5.643689574967E-01 -4.061096909726E+00 5.587218465910E-01 -2.299240772031E-01 -1.246501901365E-01 -5.225421053747E+00 3.877165433455E+00 -1.095860345802E+01 1.364586202259E+00 1.179208326864E-01 2.199170124040E+00 3.902975774115E+00 -1.627892509842E+00 9.586392716489E+00 1.333197155282E+01 -1.546560630707E+01 2.517017827758E+01 2.950324658549E-01 -6.770383488001E-02 -2.054504275425E-01 -2.429435804871E+00 2.913279464156E+00 -2.036096717989E+00 -2.586679314052E+00 5.888571125250E-01 1.398234483887E+00 5.371210561203E+00 -3.227112704817E+00 -7.366312169702E+00 1.662758909486E+00 -1.609928972274E+00 -1.883390487654E-01 7.188324332796E+00 -5.221821919132E+00 2.513606185007E-02 3.088268563438E+00 -2.106841711694E+00 1.542731789421E+01 -1.080699997926E+01 -5.110146294835E+00 -1.645454205822E+01 -1.219344110917E+01 -1.670866386795E+01 3.108088801488E+02
 -2.726713660355E-01 -4.089904593736E-01 -7.839839499096E-01 5.244311579675E-01 -5.489649246081E-01 1.132063073898E+00 1.864083387303E-01 -4.086873813973E-02 -1.817257410974E-01 -5.470376472912E+00 4.630960148857E-01 -5.652294934557E+00 9.325136807114E-01 1.390026996119E+00 3.484258108147E-01 8.159840727672E+00 1.396791198269E+00 -1.470239654307E+01 -1.488235016410E+01 1.994947578421E-01 -1.013097809701E+01 1.586592413350E-01 -7.235896461487E-02 -1.492487150215E-01 -6.544743980301E+00 -1.065512319748E+00 -4.659351494906E+00 -1.070603954646E+00 1.622219361475E+00 1.282316875721E+00 -1.094801671280E+01 3.299889047947E-01 -1.047385904503E+01 -2.633773753769E+00 4.411125952329E+00 -5.580426894603E+00 1.989517607896E+01 1.348920994097E+01 -2.052630215744E+01 -5.677172215210E+02 2.097611460295E+02 -2.795592587227E+02 1.093544677660E-01 -3.482716521028E-01 2.099322175814E-01 2.322152825034E+01 -1.394061178498E+00 -7.953290809339E+00 4.139416985157E+03
 3.731469924174E-02 -3.345370642012E-01 1.459147864174E-01 4.034231842291E-01 1.162906876894E-01 1.387634857604E+00 -3.149852427568E-01 1.122085727908E-01 3.714624256452E-02 1.483404402928E+00 4.280654079482E+00 1.577000325686E+00 5.295192387300E-01 -1.024148640972E+00 -1.416892506608E+00 1.935298885734E+00 -9.773126370836E-03 -2.981847228768E+00 -1.069921288214E+00 7.430619412331E+00 -2.543039078413E-01 7.982512460016E-02 -1.210007180889E-01 -9.119506801657E-02 1.498495255217E+00 3.984405574081E+00 -3.864471690820E-01 -3.985752190388E-01 1.841846378203E+00 -1.524731979631E+00 4.190978463382E-01 4.587657718337E+01 1.160553212715E+00 5.398257578100E-02 -1.725873429087E+00 3.958680205517E+00 1.483779256291E+01 1.013142856475E+01 -1.515048343897E+01 2.290206631763E+02 -4.490036063664E+02 2.556793122959E+02 -2.492921581485E-01 7.958629432238E-01 2.227168048171E-01 4.739919621602E-02 -2.166662009945E+00 -6.221607915542E+01 9.480410476623E+00 4.537162337564E+03
 2.882476827081E-01 3.976661361786E-02 -3.195794963346E-01 -1.418502907402E+00 -1.671493796943E+00 -1.538695211169E+00 -1.243865506326E-01 1.620440237586E-02 -6.161929202067E-03 1.968749921892E+00 -1.518362345738E-01 1.130406413608E+00 -1.482119231965E+00 2.992125609258E+00 3.564078351911E-01 -1.237246691334E+01 -6.417411574968E-01 1.982990263606E+01 1.215879522855E+01 -2.381379072692E+00 9.075899315460E+00 -1.385482165496E-01 -4.987037037151E-02 -5.553135115561E-02 2.214906360507E+00 -1.232892027312E+00 1.849034561267E+00 -7.885804442350E-01 -5.561324572463E-01 -4.237532023446E-01 -6.718413100075E+00 5.802188516515E-01 -4.196570568419E+00 1.976171646486E+00 -9.678221589263E-01 1.321016935795E+01 -1.864426955908E+01 -1.295666708119E+01 -1.890338158333E+00 -1.775146972718E+02 1.611529612474E+02 -4.732856740187E+02 -9.217027151617E-01 5.348028440721E-01 2.529316952248E-01 -1.853375388979E-02 -3.939867285680E+01 -4.447867773802E+01 7.282197549012E+02 -5.261837521772E+01 3.599145585494E+03
 -2.633926709616E-01 9.838078464076E-02 -5.354645740750E-01 -3.905885480441E-01 2.233251483975E-02 -8.908025478040E-02 1.082385801529E-01 1.262649762973E-02 -1.360712905119E-01 -8.617550252263E+00 -2.191521252728E-01 -8.972378883375E+00 4.011318720886E-01 -4.992476652041E-02 1.410297645794E+00 7.617640886994E-02 -3.422433537106E-01 -1.255288086318E+00 1.890937166396E+01 1.395385436570E+01 2.003556831037E+01 1.771334401860E-02 1.577097668188E-02 -1.137599034014E-01 -6.556875851414E+00 -3.069039371155E+00 -5.884427899743E+00 1.081733382703E+00 6.084417205434E-01 1.330119747517E+00 -1.440630507959E+00 -1.004460375322E+00 -4.809443549873E+00 1.922825931795E+01 -1.418213699770E+01 1.941802620405E+01 4.596058396860E-01 1.255052075300E-02 -3.666361646556E-03 -9.425844606502E+00 1.612516004563E+00 -1.123751581191E+00 5.968048952350E-01 2.036475368214E-01 4.621980373794E-02 7.513560173819E-02 3.834437353328E-01 8.739373908141E-01 1.959759789541E+01 -1.504619541387E+01 -1.842069655846E+01 8.279515013384E-01
 -7.423449982050E-02 1.092683742540E-01 -1.205387428818E-01 4.154353629649E-03 -1.092892665506E-01 7.142514487379E-02 3.789370147934E-02 4.380673858957E-02 -8.106455707767E-02 8.822810240269E-03 -7.362708928915E-01 9.233580304582E-02 -7.313837277804E-02 -1.247753301291E-01 6.729402352805E-01 -1.034515847709E-01 -4.005671411721E-01 -3.989885796672E-01 1.261857790028E+01 9.210540495455E+00 1.386681279107E+01 1.046380014237E-02 7.018171745779E-02 3.140382044084E-03 -3.300707043272E+00 -2.911334855377E+00 -2.924706580892E+00 -1.194675768891E-01 3.835377959171E-01 1.009432753762E-01 -9.184716513078E-01 -4.735610778862E-01 -2.444665246868E+00 -1.341372517510E+01 9.911300835116E+00 -1.350373464534E+01 -5.483484091615E-02 -8.856391962871E-02 6.984144081197E-02 1.859695448774E+00 -4.891312843286E+00 -7.978411533737E-01 2.602930438745E-03 4.408532008132E-01 -6.175025620612E-04 -1.959436446961E-03 -3.737018550714E-01 -6.472744987799E-01 -1.277598821630E+01 9.497687831166E+00 1.383823312230E+01 -1.796180291462E-01 3.831846019774E-01