#BIOSYM hessian 1
@Type: Hessian Update
@Units
 distance: 	A
 energy: 	Kcal/Mol
#header
@natom 92

#label
P1      P2      P3      P4      P5      P6      P7      P8      A9      A10     A11     A12     A13     A14     A15     A16     A17     A18     A19     A20     O21     O22     O23     P24     P25     P26     P27     P28     P29     P30     P31     A32     A33     A34     A35     A36     A37     A38     A39     A40     A41     A42     A43     O44     O45     O46     P47     P48     P49     P50     P51     P52     P53     P54     A55     A56     A57     A58     A59     A60     A61     A62     A63     A64     A65     A66     O67     O68     P69     P70     P71     P72     P73     P74     P75     P76     A77     A78     A79     A80     A81     A82     A83     A84     A85     A86     A87     A88     O89     O90     O91     O92

#element
Pd Pd Pd Pd Pd Pd Pd Pd Ag Ag Ag Ag Ag Ag Ag Ag Ag Ag Ag Ag O  O  O  Pd Pd Pd Pd Pd Pd Pd Pd Ag Ag Ag Ag Ag Ag Ag Ag Ag Ag Ag Ag O  O  O  Pd Pd Pd Pd Pd Pd Pd Pd Ag Ag Ag Ag Ag Ag Ag Ag Ag Ag Ag Ag O  O  Pd Pd Pd Pd Pd Pd Pd Pd Ag Ag Ag Ag Ag Ag Ag Ag Ag Ag Ag Ag O  O  O  O 

#matrix
276
 0.000000000000E+00
 0.000000000000E+00 0.000000000000E+00
 0.000000000000E+00 0.000000000000E+00 0.000000000000E+00
 0.000000000000E+00 0.000000000000E+00 0.000000000000E+00 0.000000000000E+00
 0.000000000000E+00 0.000000000000E+00 0.000000000000E+00 0.000000000000E+00 0.000000000000E+00
 0.000000000000E+00 0.000000000000E+00 0.000000000000E+00 0.000000000000E+00 0.000000000000E+00 0.000000000000E+00
 0.000000000000E+00 0.000000000000E+00 0.000000000000E+00 0.000000000000E+00 0.000000000000E+00 0.000000000000E+00 3.539246638721E+03
 0.000000000000E+00 0.000000000000E+00 0.000000000000E+00 0.000000000000E+00 0.000000000000E+00 0.000000000000E+00 -4.099874306893E+02 3.051186756029E+03
 0.000000000000E+00 0.000000000000E+00 0.000000000000E+00 0.000000000000E+00 0.000000000000E+00 0.000000000000E+00 9.022255805469E+02 2.745516826093E+02 2.212319042639E+03
 0.000000000000E+00 0.000000000000E+00 0.000000000000E+00 0.000000000000E+00 0.000000000000E+00 0.000000000000E+00 3.863396073942E+00 1.849854917261E+00 3.866216614057E+00 3.335813499538E+03
 0.000000000000E+00 0.000000000000E+00 0.000000000000E+00 0.000000000000E+00 0.000000000000E+00 0.000000000000E+00 1.678768298651E+01 2.278694446746E+01 4.424627455010E+00 -5.309047390251E+02 3.486595489545E+03
 0.000000000000E+00 0.000000000000E+00 0.000000000000E+00 0.000000000000E+00 0.000000000000E+00 0.000000000000E+00 1.551340590960E+01 1.264259861799E+01 1.516096508570E+01 -1.484544634020E+01 -4.383229658621E+02 3.235004846685E+03
 0.000000000000E+00 0.000000000000E+00 0.000000000000E+00 0.000000000000E+00 0.000000000000E+00 0.000000000000E+00 0.000000000000E+00 0.000000000000E+00 0.000000000000E+00 0.000000000000E+00 0.000000000000E+00 0.000000000000E+00 0.000000000000E+00
 0.000000000000E+00 0.000000000000E+00 0.000000000000E+00 0.000000000000E+00 0.000000000000E+00 0.000000000000E+00 0.000000000000E+00 0.000000000000E+00 0.000000000000E+00 0.000000000000E+00 0.000000000000E+00 0.000000000000E+00 0.000000000000E+00 0.000000000000E+00
 0.000000000000E+00 0.000000000000E+00 0.000000000000E+00 0.000000000000E+00 0.000000000000E+00 0.000000000000E+00 0.000000000000E+00 0.000000000000E+00 0.000000000000E+00 0.000000000000E+00 0.000000000000E+00 0.000000000000E+00 0.000000000000E+00 0.000000000000E+00 0.000000000000E+00
 0.000000000000E+00 0.000000000000E+00 0.000000000000E+00 0.000000000000E+00 0.000000000000E+00 0.000000000000E+00 0.000000000000E+00 0.000000000000E+00 0.000000000000E+00 0.000000000000E+00 0.000000000000E+00 0.000000000000E+00 0.000000000000E+00 0.000000000000E+00 0.000000000000E+00 0.000000000000E+00
 0.000000000000E+00 0.000000000000E+00 0.000000000000E+00 0.000000000000E+00 0.000000000000E+00 0.000000000000E+00 0.000000000000E+00 0.000000000000E+00 0.000000000000E+00 0.000000000000E+00 0.000000000000E+00 0.000000000000E+00 0.000000000000E+00 0.000000000000E+00 0.000000000000E+00 0.000000000000E+00 0.000000000000E+00
 0.000000000000E+00 0.000000000000E+00 0.000000000000E+00 0.000000000000E+00 0.000000000000E+00 0.000000000000E+00 0.000000000000E+00 0.000000000000E+00 0.000000000000E+00 0.000000000000E+00 0.000000000000E+00 0.000000000000E+00 0.000000000000E+00 0.000000000000E+00 0.000000000000E+00 0.000000000000E+00 0.000000000000E+00 0.000000000000E+00
 0.000000000000E+00 0.000000000000E+00 0.000000000000E+00 0.000000000000E+00 0.000000000000E+00 0.000000000000E+00 -2.782307757078E+02 -2.763577544765E+02 -3.966451741418E+02 -9.822059116030E-02 2.630988772896E+00 2.148103361662E-01 0.000000000000E+00 0.000000000000E+00 0.000000000000E+00 0.000000000000E+00 0.000000000000E+00 0.000000000000E+00 4.942148046303E+02
 0.000000000000E+00 0.000000000000E+00 0.000000000000E+00 0.000000000000E+00 0.000000000000E+00 0.000000000000E+00 -2.644763622399E+02 -2.615163371040E+02 -3.774070277780E+02 -6.324626831718E-01 -6.739610127031E+00 -4.917157732245E+00 0.000000000000E+00 0.000000000000E+00 0.000000000000E+00 0.000000000000E+00 0.000000000000E+00 0.000000000000E+00 -7.889214199897E+00 5.313672145523E+02
 0.000000000000E+00 0.000000000000E+00 0.000000000000E+00 0.000000000000E+00 0.000000000000E+00 0.000000000000E+00 -3.905188115342E+02 -3.799528346003E+02 -5.755678940941E+02 -1.415771393848E+00 -8.260753106108E+00 -4.439252743454E+00 0.000000000000E+00 0.000000000000E+00 0.000000000000E+00 0.000000000000E+00 0.000000000000E+00 0.000000000000E+00 2.341286162712E+01 1.624428208461E+01 8.183099286780E+02
 0.000000000000E+00 0.000000000000E+00 0.000000000000E+00 0.000000000000E+00 0.000000000000E+00 0.000000000000E+00 5.033362344526E+00 3.938802991623E+00 7.324504379452E+00 -6.403740718624E-01 -3.177989098384E+00 -2.313027039924E+00 0.000000000000E+00 0.000000000000E+00 0.000000000000E+00 0.000000000000E+00 0.000000000000E+00 0.000000000000E+00 9.855422533524E+00 -1.217716988500E+01 1.641768422772E+01 2.524254086792E+02
 0.000000000000E+00 0.000000000000E+00 0.000000000000E+00 0.000000000000E+00 0.000000000000E+00 0.000000000000E+00 -4.427605708963E+00 -3.097653307025E+00 -7.215609752732E+00 5.649931533484E-01 2.580684614443E+00 1.949563354924E+00 0.000000000000E+00 0.000000000000E+00 0.000000000000E+00 0.000000000000E+00 0.000000000000E+00 0.000000000000E+00 -8.405959519338E+00 1.222784091260E+01 -1.570513534172E+01 -2.409058574793E+02 2.302717594008E+02
 0.000000000000E+00 0.000000000000E+00 0.000000000000E+00 0.000000000000E+00 0.000000000000E+00 0.000000000000E+00 1.426007166882E+01 2.480999274910E+01 -7.976879490737E+00 -1.751520995226E+00 -1.699209635696E+01 -9.717199694556E+00 0.000000000000E+00 0.000000000000E+00 0.000000000000E+00 0.000000000000E+00 0.000000000000E+00 0.000000000000E+00 3.771492624438E+01 2.187763105727E+01 -4.607296307439E-01 1.388628122575E+01 1.243707491023E-01 4.981680758342E+02
 0.000000000000E+00 0.000000000000E+00 0.000000000000E+00 0.000000000000E+00 0.000000000000E+00 0.000000000000E+00 1.020137710206E+01 1.300275138393E+01 1.531168290679E+00 2.924520534887E-02 -1.160578727893E+01 -7.356651791029E+00 0.000000000000E+00 0.000000000000E+00 0.000000000000E+00 0.000000000000E+00 0.000000000000E+00 0.000000000000E+00 2.788593549661E+00 -8.021096835956E+00 -8.077604513619E+00 -3.001537229656E+00 2.606958853178E+00 -9.743705145948E+00 4.200376210326E+03
 0.000000000000E+00 0.000000000000E+00 0.000000000000E+00 0.000000000000E+00 0.000000000000E+00 0.000000000000E+00 -1.183177654826E+01 8.928185627099E-01 -2.988064091238E+01 1.636090844147E+00 9.239191663645E-01 5.382888262253E+00 0.000000000000E+00 0.000000000000E+00 0.000000000000E+00 0.000000000000E+00 0.000000000000E+00 0.000000000000E+00 1.237798012733E+00 2.455161557559E+00 -1.846565474139E+00 1.539845602196E+00 -1.487864041866E+00 -5.953810118060E-01 4.143852242020E+02 2.908605963225E+03
 0.000000000000E+00 0.000000000000E+00 0.000000000000E+00 0.000000000000E+00 0.000000000000E+00 0.000000000000E+00 -2.265261780410E+01 -2.216108796478E+01 -1.455379640661E+01 1.883841385265E+00 1.940026219525E+01 1.297990744126E+01 0.000000000000E+00 0.000000000000E+00 0.000000000000E+00 0.000000000000E+00 0.000000000000E+00 0.000000000000E+00 -2.937126860928E+00 9.797231494848E+00 1.140791068364E+01 4.531259474079E+00 -3.873850996236E+00 1.700507219424E+01 -5.093479023646E+02 -3.284923041952E+02 1.819341118899E+03
 0.000000000000E+00 0.000000000000E+00 0.000000000000E+00 0.000000000000E+00 0.000000000000E+00 0.000000000000E+00 -2.869171978347E+00 -7.633246005653E-01 -1.269154114966E+01 -3.744839849714E-02 1.957262876833E+00 2.426402635414E+00 0.000000000000E+00 0.000000000000E+00 0.000000000000E+00 0.000000000000E+00 0.000000000000E+00 0.000000000000E+00 9.671277152753E-01 4.900128021595E-01 1.160129573166E-01 6.632275446976E-01 -6.460676639403E-01 -4.508747379725E-01 1.337432069862E+00 -3.021400631569E+00 -1.714812758445E+00 3.427224239066E+03
 0.000000000000E+00 0.000000000000E+00 0.000000000000E+00 0.000000000000E+00 0.000000000000E+00 0.000000000000E+00 -8.120511301785E-01 5.921559273295E+00 -1.287792683653E+01 -3.638827618409E-01 -3.270158801074E+00 1.203282226075E-01 0.000000000000E+00 0.000000000000E+00 0.000000000000E+00 0.000000000000E+00 0.000000000000E+00 0.000000000000E+00 1.503424557274E+00 -9.072928496145E-01 -3.405453966158E+00 -1.626010451383E-01 3.685005635424E-02 -4.408913737273E+00 -2.305836457824E+00 -2.880085326809E+00 1.834568186124E+00 -2.273335109516E+02 3.171140652952E+03
 0.000000000000E+00 0.000000000000E+00 0.000000000000E+00 0.000000000000E+00 0.000000000000E+00 0.000000000000E+00 3.961691039573E+01 4.144377723733E+01 2.502269184340E+01 -4.216211916823E+00 -3.551739525962E+01 -2.332048458568E+01 0.000000000000E+00 0.000000000000E+00 0.000000000000E+00 0.000000000000E+00 0.000000000000E+00 0.000000000000E+00 3.037656284225E+00 -1.347430273234E+01 -1.633250826874E+01 -6.814562069708E+00 5.615803979343E+00 -3.338553106454E+01 -2.304795727003E+01 7.276981771252E+00 3.820899880845E+01 -3.527382372959E+02 5.337577860527E+02 2.292305913495E+03
 0.000000000000E+00 0.000000000000E+00 0.000000000000E+00 0.000000000000E+00 0.000000000000E+00 0.000000000000E+00 0.000000000000E+00 0.000000000000E+00 0.000000000000E+00 0.000000000000E+00 0.000000000000E+00 0.000000000000E+00 0.000000000000E+00 0.000000000000E+00 0.000000000000E+00 0.000000000000E+00 0.000000000000E+00 0.000000000000E+00 0.000000000000E+00 0.000000000000E+00 0.000000000000E+00 0.000000000000E+00 0.000000000000E+00 0.000000000000E+00 0.000000000000E+00 0.000000000000E+00 0.000000000000E+00 0.000000000000E+00 0.000000000000E+00 0.000000000000E+00 0.000000000000E+00
 0.000000000000E+00 0.000000000000E+00 0.000000000000E+00 0.000000000000E+00 0.000000000000E+00 0.000000000000E+00 0.000000000000E+00 0.000000000000E+00 0.000000000000E+00 0.000000000000E+00 0.000000000000E+00 0.000000000000E+00 0.000000000000E+00 0.000000000000E+00 0.000000000000E+00 0.000000000000E+00 0.000000000000E+00 0.000000000000E+00 0.000000000000E+00 0.000000000000E+00 0.000000000000E+00 0.000000000000E+00 0.000000000000E+00 0.000000000000E+00 0.000000000000E+00 0.000000000000E+00 0.000000000000E+00 0.000000000000E+00 0.000000000000E+00 0.000000000000E+00 0.000000000000E+00 0.000000000000E+00
 0.000000000000E+00 0.000000000000E+00 0.000000000000E+00 0.000000000000E+00 0.000000000000E+00 0.000000000000E+00 0.000000000000E+00 0.000000000000E+00 0.000000000000E+00 0.000000000000E+00 0.000000000000E+00 0.000000000000E+00 0.000000000000E+00 0.000000000000E+00 0.000000000000E+00 0.000000000000E+00 0.000000000000E+00 0.000000000000E+00 0.000000000000E+00 0.000000000000E+00 0.000000000000E+00 0.000000000000E+00 0.000000000000E+00 0.000000000000E+00 0.000000000000E+00 0.000000000000E+00 0.000000000000E+00 0.000000000000E+00 0.000000000000E+00 0.000000000000E+00 0.000000000000E+00 0.000000000000E+00 0.000000000000E+00
 0.000000000000E+00 0.000000000000E+00 0.000000000000E+00 0.000000000000E+00 0.000000000000E+00 0.000000000000E+00 0.000000000000E+00 0.000000000000E+00 0.000000000000E+00 0.000000000000E+00 0.000000000000E+00 0.000000000000E+00 0.000000000000E+00 0.000000000000E+00 0.000000000000E+00 0.000000000000E+00 0.000000000000E+00 0.000000000000E+00 0.000000000000E+00 0.000000000000E+00 0.000000000000E+00 0.000000000000E+00 0.000000000000E+00 0.000000000000E+00 0.000000000000E+00 0.000000000000E+00 0.000000000000E+00 0.000000000000E+00 0.000000000000E+00 0.000000000000E+00 0.000000000000E+00 0.000000000000E+00 0.000000000000E+00 0.000000000000E+00
 0.000000000000E+00 0.000000000000E+00 0.000000000000E+00 0.000000000000E+00 0.000000000000E+00 0.000000000000E+00 0.000000000000E+00 0.000000000000E+00 0.000000000000E+00 0.000000000000E+00 0.000000000000E+00 0.000000000000E+00 0.000000000000E+00 0.000000000000E+00 0.000000000000E+00 0.000000000000E+00 0.000000000000E+00 0.000000000000E+00 0.000000000000E+00 0.000000000000E+00 0.000000000000E+00 0.000000000000E+00 0.000000000000E+00 0.000000000000E+00 0.000000000000E+00 0.000000000000E+00 0.000000000000E+00 0.000000000000E+00 0.000000000000E+00 0.000000000000E+00 0.000000000000E+00 0.000000000000E+00 0.000000000000E+00 0.000000000000E+00 0.000000000000E+00
 0.000000000000E+00 0.000000000000E+00 0.000000000000E+00 0.000000000000E+00 0.000000000000E+00 0.000000000000E+00 0.000000000000E+00 0.000000000000E+00 0.000000000000E+00 0.000000000000E+00 0.000000000000E+00 0.000000000000E+00 0.000000000000E+00 0.000000000000E+00 0.000000000000E+00 0.000000000000E+00 0.000000000000E+00 0.000000000000E+00 0.000000000000E+00 0.000000000000E+00 0.000000000000E+00 0.000000000000E+00 0.000000000000E+00 0.000000000000E+00 0.000000000000E+00 0.000000000000E+00 0.000000000000E+00 0.000000000000E+00 0.000000000000E+00 0.000000000000E+00 0.000000000000E+00 0.000000000000E+00 0.000000000000E+00 0.000000000000E+00 0.000000000000E+00 0.000000000000E+00
 0.000000000000E+00 0.000000000000E+00 0.000000000000E+00 0.000000000000E+00 0.000000000000E+00 0.000000000000E+00 -2.927103813286E+02 2.708837238743E+02 -4.040643779461E+02 9.857934854205E-01 1.091858639716E+01 7.835411265989E+00 0.000000000000E+00 0.000000000000E+00 0.000000000000E+00 0.000000000000E+00 0.000000000000E+00 0.000000000000E+00 1.950149976845E+02 -1.628176424720E+01 1.081920767066E+01 -2.133370489540E+01 2.293400370146E+01 9.453247373461E+01 7.554239447945E+00 -2.761215356662E+00 -1.337031065872E+01 -8.538921144894E-01 1.071071686128E+00 2.264569282618E+01 0.000000000000E+00 0.000000000000E+00 0.000000000000E+00 0.000000000000E+00 0.000000000000E+00 0.000000000000E+00 5.293894474237E+02
 0.000000000000E+00 0.000000000000E+00 0.000000000000E+00 0.000000000000E+00 0.000000000000E+00 0.000000000000E+00 2.698864339490E+02 -2.945780760766E+02 3.721727567440E+02 2.632817253706E+00 7.864671853740E+00 6.029937480376E+00 0.000000000000E+00 0.000000000000E+00 0.000000000000E+00 0.000000000000E+00 0.000000000000E+00 0.000000000000E+00 -4.081177721512E+00 -2.472807810775E+01 -2.010851546828E+02 -9.652329331264E+01 9.673846306026E+01 1.664808155808E+02 9.929730922855E+00 -4.887839697735E+00 -1.260174636801E+01 -2.773566989692E+00 -6.262201211778E-01 1.623921725287E+01 0.000000000000E+00 0.000000000000E+00 0.000000000000E+00 0.000000000000E+00 0.000000000000E+00 0.000000000000E+00 -4.375395137101E+01 6.784425571577E+02
 0.000000000000E+00 0.000000000000E+00 0.000000000000E+00 0.000000000000E+00 0.000000000000E+00 0.000000000000E+00 -3.815228868256E+02 4.117736452620E+02 -5.449222970367E+02 -1.942871290774E+00 -9.391744067139E+00 -6.913022079701E+00 0.000000000000E+00 0.000000000000E+00 0.000000000000E+00 0.000000000000E+00 0.000000000000E+00 0.000000000000E+00 1.361505145723E+01 1.803485651900E+02 2.968655499723E+02 -7.220634127612E+01 7.230877574635E+01 1.223632977358E+02 -5.863802212142E+00 3.746625350766E+00 1.159817963378E+01 -3.508613925653E-01 -1.877522224707E+00 -2.065348340878E+01 0.000000000000E+00 0.000000000000E+00 0.000000000000E+00 0.000000000000E+00 0.000000000000E+00 0.000000000000E+00 2.119232767114E+01 2.607886542927E+00 8.974141408874E+02
 0.000000000000E+00 0.000000000000E+00 0.000000000000E+00 0.000000000000E+00 0.000000000000E+00 0.000000000000E+00 -2.977742145243E+02 2.803364302720E+02 3.730676425888E+02 -2.958703272734E+02 2.859955047532E+02 -4.012876120160E+02 0.000000000000E+00 0.000000000000E+00 0.000000000000E+00 0.000000000000E+00 0.000000000000E+00 0.000000000000E+00 -9.632535275353E+00 6.010452548275E+00 -1.584181633828E+02 1.025981861275E+02 -9.472183448315E+01 1.244175368184E+02 -4.390628780927E-01 -8.816762349793E+00 -3.846079695695E+00 -4.465968463033E+00 -3.586101035654E+00 7.926346441496E+00 0.000000000000E+00 0.000000000000E+00 0.000000000000E+00 0.000000000000E+00 0.000000000000E+00 0.000000000000E+00 6.817735237666E+00 6.038501077380E+01 -7.446489606228E+01 5.755336077401E+02
 0.000000000000E+00 0.000000000000E+00 0.000000000000E+00 0.000000000000E+00 0.000000000000E+00 0.000000000000E+00 2.819095393465E+02 -2.654919151146E+02 -3.688713728441E+02 2.812954742751E+02 -2.708279088727E+02 3.829653528669E+02 0.000000000000E+00 0.000000000000E+00 0.000000000000E+00 0.000000000000E+00 0.000000000000E+00 0.000000000000E+00 -1.005775795468E+00 2.111130337995E+02 3.278912517954E+01 3.061439371837E+01 -2.737764351028E+01 7.008904439179E+01 -2.131170341238E+00 5.369959928112E+00 3.884976156421E+00 2.790100261744E+00 1.315666706259E+00 -4.898106865597E+00 0.000000000000E+00 0.000000000000E+00 0.000000000000E+00 0.000000000000E+00 0.000000000000E+00 0.000000000000E+00 2.647867566154E+01 -4.297241425620E+00 7.652792442494E+01 -3.189993988925E+01 5.007282694213E+02
 0.000000000000E+00 0.000000000000E+00 0.000000000000E+00 0.000000000000E+00 0.000000000000E+00 0.000000000000E+00 4.057605821159E+02 -3.859313310161E+02 -5.680052115039E+02 -4.054643280089E+02 3.856780746835E+02 -5.537454186103E+02 0.000000000000E+00 0.000000000000E+00 0.000000000000E+00 0.000000000000E+00 0.000000000000E+00 0.000000000000E+00 1.806176344848E+02 3.435959982857E+01 3.486004884324E+02 8.497195236508E+01 -7.858393684051E+01 9.801593245470E+01 -2.777363912003E+00 -1.097421119225E+00 1.709043287143E+00 8.864872840043E-01 -1.296982769785E+00 -1.242602391335E+00 0.000000000000E+00 0.000000000000E+00 0.000000000000E+00 0.000000000000E+00 0.000000000000E+00 0.000000000000E+00 7.460856463557E+01 -1.407936832283E+02 1.750635270324E+02 -2.622018136907E+01 6.803786182825E+01 8.843061732752E+02
 0.000000000000E+00 0.000000000000E+00 0.000000000000E+00 0.000000000000E+00 0.000000000000E+00 0.000000000000E+00 -3.176921287709E+00 -5.404810646461E+00 2.226150650699E+00 6.127990180107E-01 5.188244178140E+00 2.541646525172E+00 0.000000000000E+00 0.000000000000E+00 0.000000000000E+00 0.000000000000E+00 0.000000000000E+00 0.000000000000E+00 -1.093549612193E+00 8.304910103574E-01 1.618235967808E+00 1.191742321887E+00 -9.779243597060E-01 5.993838567885E+00 3.689903494507E+00 7.196074716803E-01 -6.406294298838E+00 -1.047515992395E+03 -1.525466928274E+02 2.380174913041E+02 0.000000000000E+00 0.000000000000E+00 0.000000000000E+00 0.000000000000E+00 0.000000000000E+00 0.000000000000E+00 -3.487185264844E+00 -7.214937527157E-01 3.966495757403E+00 4.977457134468E-01 2.160711015445E-01 1.166047682202E-01 2.574723077547E+03
 0.000000000000E+00 0.000000000000E+00 0.000000000000E+00 0.000000000000E+00 0.000000000000E+00 0.000000000000E+00 -1.245278019837E+01 -2.261105851416E-01 -2.114966692413E+01 1.668058677519E+00 4.116162748570E+00 2.882689915618E+00 0.000000000000E+00 0.000000000000E+00 0.000000000000E+00 0.000000000000E+00 0.000000000000E+00 0.000000000000E+00 7.277994749928E-01 2.105483703776E+00 -2.744431127692E-01 3.426683281894E-01 -2.570367956947E-01 2.621474815415E+00 1.966517846695E+00 -5.602686364871E+00 -6.054765365098E+00 -1.566004078956E+02 -2.562060285983E+01 4.312236798092E+01 0.000000000000E+00 0.000000000000E+00 0.000000000000E+00 0.000000000000E+00 0.000000000000E+00 0.000000000000E+00 -3.516559210115E+00 -3.864768589569E+00 3.640915612262E+00 -6.327387466870E+00 2.522550620398E+00 -1.163213849364E+00 -7.954174387858E+01 3.379833666277E+03
 0.000000000000E+00 0.000000000000E+00 0.000000000000E+00 0.000000000000E+00 0.000000000000E+00 0.000000000000E+00 -7.322672340495E+00 -3.818261216564E-01 -1.514678200737E+01 6.567121009086E-01 2.054312720710E+00 2.936626665047E+00 0.000000000000E+00 0.000000000000E+00 0.000000000000E+00 0.000000000000E+00 0.000000000000E+00 0.000000000000E+00 -9.673167903741E-01 4.575175806724E+00 3.054566876422E+00 2.257604917079E+00 -2.162301152753E+00 -1.629788635328E-01 3.880874500435E-01 -4.686666689281E+00 -3.467417332471E+00 2.265361849155E+02 3.165761442394E+01 -4.306916154558E+01 0.000000000000E+00 0.000000000000E+00 0.000000000000E+00 0.000000000000E+00 0.000000000000E+00 0.000000000000E+00 -3.456127483184E+00 -7.428626821590E+00 2.978434291307E+00 -3.529188970597E+00 4.188107186987E+00 1.601312791582E+00 -2.172056906644E+01 1.025403282540E+03 7.597021959044E+02
 0.000000000000E+00 0.000000000000E+00 0.000000000000E+00 0.000000000000E+00 0.000000000000E+00 0.000000000000E+00 -2.394690366308E+01 -3.760469661504E+01 -2.229530606805E+00 1.363702905913E+00 3.086604980361E+01 1.894748019619E+01 0.000000000000E+00 0.000000000000E+00 0.000000000000E+00 0.000000000000E+00 0.000000000000E+00 0.000000000000E+00 -1.484470274879E+00 7.617785020156E+00 1.266869209818E+01 4.200659499770E+00 -3.174061617030E+00 3.127570306917E+01 -1.098162260672E+03 1.638623780483E+01 -8.145417463455E+01 -3.440887063892E-01 6.518185162156E+00 5.609421144290E+01 0.000000000000E+00 0.000000000000E+00 0.000000000000E+00 0.000000000000E+00 0.000000000000E+00 0.000000000000E+00 -1.649113412418E+01 -8.336955947990E+00 1.573640130410E+01 -2.486058383552E+00 1.008332277647E+00 1.948064902293E+00 -9.151050205049E+00 -4.402363283131E+00 -3.351462680423E+00 4.102155855686E+03
 0.000000000000E+00 0.000000000000E+00 0.000000000000E+00 0.000000000000E+00 0.000000000000E+00 0.000000000000E+00 -6.663998254592E+01 -5.436158322220E+01 -6.836192040174E+01 8.369459705721E+00 4.962463734897E+01 3.729721521625E+01 0.000000000000E+00 0.000000000000E+00 0.000000000000E+00 0.000000000000E+00 0.000000000000E+00 0.000000000000E+00 -3.048267453164E+00 2.344389779361E+01 2.292339857476E+01 1.239421442359E+01 -1.069820356919E+01 4.271408386590E+01 4.863626688443E+01 -2.117023306285E+01 -5.789912719420E+01 -9.052886211189E+00 1.615786944994E+00 1.049006015016E+02 0.000000000000E+00 0.000000000000E+00 0.000000000000E+00 0.000000000000E+00 0.000000000000E+00 0.000000000000E+00 -3.509504590956E+01 -3.316947458929E+01 3.052653451737E+01 -2.067287755236E+01 1.375431497853E+01 1.472958940321E+00 -1.351828135182E+01 -2.091870371443E+01 -1.450177951399E+01 -5.684374963297E+02 2.737025010685E+03
 0.000000000000E+00 0.000000000000E+00 0.000000000000E+00 0.000000000000E+00 0.000000000000E+00 0.000000000000E+00 1.825841472107E+01 1.313581788488E+01 2.229042915813E+01 -2.984059922754E+00 -1.248866485641E+01 -9.700543773209E+00 0.000000000000E+00 0.000000000000E+00 0.000000000000E+00 0.000000000000E+00 0.000000000000E+00 0.000000000000E+00 5.779072345689E-01 -6.347549953929E+00 -5.278761420750E+00 -3.400514795701E+00 2.977641720314E+00 -1.014073173022E+01 -5.754238336421E+01 8.020927985189E+00 1.263422895498E+01 2.595772432571E+00 2.938670617797E-01 -2.729397116355E+01 0.000000000000E+00 0.000000000000E+00 0.000000000000E+00 0.000000000000E+00 0.000000000000E+00 0.000000000000E+00 9.267312290260E+00 9.610933054025E+00 -8.033055069518E+00 6.785351861321E+00 -4.502001265966E+00 -4.351193159486E-01 2.982040902172E+00 5.923983681695E+00 4.122031655279E+00 4.774679358950E+02 -2.366530184035E+02 1.894641235292E+03
 0.000000000000E+00 0.000000000000E+00 0.000000000000E+00 0.000000000000E+00 0.000000000000E+00 0.000000000000E+00 0.000000000000E+00 0.000000000000E+00 0.000000000000E+00 0.000000000000E+00 0.000000000000E+00 0.000000000000E+00 0.000000000000E+00 0.000000000000E+00 0.000000000000E+00 0.000000000000E+00 0.000000000000E+00 0.000000000000E+00 0.000000000000E+00 0.000000000000E+00 0.000000000000E+00 0.000000000000E+00 0.000000000000E+00 0.000000000000E+00 0.000000000000E+00 0.000000000000E+00 0.000000000000E+00 0.000000000000E+00 0.000000000000E+00 0.000000000000E+00 0.000000000000E+00 0.000000000000E+00 0.000000000000E+00 0.000000000000E+00 0.000000000000E+00 0.000000000000E+00 0.000000000000E+00 0.000000000000E+00 0.000000000000E+00 0.000000000000E+00 0.000000000000E+00 0.000000000000E+00 0.000000000000E+00 0.000000000000E+00 0.000000000000E+00 0.000000000000E+00 0.000000000000E+00 0.000000000000E+00 0.000000000000E+00
 0.000000000000E+00 0.000000000000E+00 0.000000000000E+00 0.000000000000E+00 0.000000000000E+00 0.000000000000E+00 0.000000000000E+00 0.000000000000E+00 0.000000000000E+00 0.000000000000E+00 0.000000000000E+00 0.000000000000E+00 0.000000000000E+00 0.000000000000E+00 0.000000000000E+00 0.000000000000E+00 0.000000000000E+00 0.000000000000E+00 0.000000000000E+00 0.000000000000E+00 0.000000000000E+00 0.000000000000E+00 0.000000000000E+00 0.000000000000E+00 0.000000000000E+00 0.000000000000E+00 0.000000000000E+00 0.000000000000E+00 0.000000000000E+00 0.000000000000E+00 0.000000000000E+00 0.000000000000E+00 0.000000000000E+00 0.000000000000E+00 0.000000000000E+00 0.000000000000E+00 0.000000000000E+00 0.000000000000E+00 0.000000000000E+00 0.000000000000E+00 0.000000000000E+00 0.000000000000E+00 0.000000000000E+00 0.000000000000E+00 0.000000000000E+00 0.000000000000E+00 0.000000000000E+00 0.000000000000E+00 0.000000000000E+00 0.000000000000E+00
 0.000000000000E+00 0.000000000000E+00 0.000000000000E+00 0.000000000000E+00 0.000000000000E+00 0.000000000000E+00 0.000000000000E+00 0.000000000000E+00 0.000000000000E+00 0.000000000000E+00 0.000000000000E+00 0.000000000000E+00 0.000000000000E+00 0.000000000000E+00 0.000000000000E+00 0.000000000000E+00 0.000000000000E+00 0.000000000000E+00 0.000000000000E+00 0.000000000000E+00 0.000000000000E+00 0.000000000000E+00 0.000000000000E+00 0.000000000000E+00 0.000000000000E+00 0.000000000000E+00 0.000000000000E+00 0.000000000000E+00 0.000000000000E+00 0.000000000000E+00 0.000000000000E+00 0.000000000000E+00 0.000000000000E+00 0.000000000000E+00 0.000000000000E+00 0.000000000000E+00 0.000000000000E+00 0.000000000000E+00 0.000000000000E+00 0.000000000000E+00 0.000000000000E+00 0.000000000000E+00 0.000000000000E+00 0.000000000000E+00 0.000000000000E+00 0.000000000000E+00 0.000000000000E+00 0.000000000000E+00 0.000000000000E+00 0.000000000000E+00 0.000000000000E+00
 0.000000000000E+00 0.000000000000E+00 0.000000000000E+00 0.000000000000E+00 0.000000000000E+00 0.000000000000E+00 0.000000000000E+00 0.000000000000E+00 0.000000000000E+00 0.000000000000E+00 0.000000000000E+00 0.000000000000E+00 0.000000000000E+00 0.000000000000E+00 0.000000000000E+00 0.000000000000E+00 0.000000000000E+00 0.000000000000E+00 0.000000000000E+00 0.000000000000E+00 0.000000000000E+00 0.000000000000E+00 0.000000000000E+00 0.000000000000E+00 0.000000000000E+00 0.000000000000E+00 0.000000000000E+00 0.000000000000E+00 0.000000000000E+00 0.000000000000E+00 0.000000000000E+00 0.000000000000E+00 0.000000000000E+00 0.000000000000E+00 0.000000000000E+00 0.000000000000E+00 0.000000000000E+00 0.000000000000E+00 0.000000000000E+00 0.000000000000E+00 0.000000000000E+00 0.000000000000E+00 0.000000000000E+00 0.000000000000E+00 0.000000000000E+00 0.000000000000E+00 0.000000000000E+00 0.000000000000E+00 0.000000000000E+00 0.000000000000E+00 0.000000000000E+00 0.000000000000E+00
 0.000000000000E+00 0.000000000000E+00 0.000000000000E+00 0.000000000000E+00 0.000000000000E+00 0.000000000000E+00 0.000000000000E+00 0.000000000000E+00 0.000000000000E+00 0.000000000000E+00 0.000000000000E+00 0.000000000000E+00 0.000000000000E+00 0.000000000000E+00 0.000000000000E+00 0.000000000000E+00 0.000000000000E+00 0.000000000000E+00 0.000000000000E+00 0.000000000000E+00 0.000000000000E+00 0.000000000000E+00 0.000000000000E+00 0.000000000000E+00 0.000000000000E+00 0.000000000000E+00 0.000000000000E+00 0.000000000000E+00 0.000000000000E+00 0.000000000000E+00 0.000000000000E+00 0.000000000000E+00 0.000000000000E+00 0.000000000000E+00 0.000000000000E+00 0.000000000000E+00 0.000000000000E+00 0.000000000000E+00 0.000000000000E+00 0.000000000000E+00 0.000000000000E+00 0.000000000000E+00 0.000000000000E+00 0.000000000000E+00 0.000000000000E+00 0.000000000000E+00 0.000000000000E+00 0.000000000000E+00 0.000000000000E+00 0.000000000000E+00 0.000000000000E+00 0.000000000000E+00 0.000000000000E+00
 0.000000000000E+00 0.000000000000E+00 0.000000000000E+00 0.000000000000E+00 0.000000000000E+00 0.000000000000E+00 0.000000000000E+00 0.000000000000E+00 0.000000000000E+00 0.000000000000E+00 0.000000000000E+00 0.000000000000E+00 0.000000000000E+00 0.000000000000E+00 0.000000000000E+00 0.000000000000E+00 0.000000000000E+00 0.000000000000E+00 0.000000000000E+00 0.000000000000E+00 0.000000000000E+00 0.000000000000E+00 0.000000000000E+00 0.000000000000E+00 0.000000000000E+00 0.000000000000E+00 0.000000000000E+00 0.000000000000E+00 0.000000000000E+00 0.000000000000E+00 0.000000000000E+00 0.000000000000E+00 0.000000000000E+00 0.000000000000E+00 0.000000000000E+00 0.000000000000E+00 0.000000000000E+00 0.000000000000E+00 0.000000000000E+00 0.000000000000E+00 0.000000000000E+00 0.000000000000E+00 0.000000000000E+00 0.000000000000E+00 0.000000000000E+00 0.000000000000E+00 0.000000000000E+00 0.000000000000E+00 0.000000000000E+00 0.000000000000E+00 0.000000000000E+00 0.000000000000E+00 0.000000000000E+00 0.000000000000E+00