#BIOSYM hessian 1
@Type: Hessian Update
@Units
 distance: 	A
 energy: 	Kcal/Mol
#header
@natom 96

#label
P1      P2      P3      P4      A5      A6      A7      A8      A9      A10     P11     P12     P13     P14     A15     A16     A17     A18     A19     A20     O21     O22     O23     O24     P25     P26     P27     P28     A29     A30     A31     A32     A33     A34     P35     P36     P37     P38     A39     A40     A41     A42     A43     A44     O45     O46     O47     O48     P49     P50     P51     P52     A53     A54     A55     A56     A57     A58     P59     P60     P61     P62     A63     A64     A65     A66     A67     A68     O69     O70     O71     O72     P73     P74     P75     P76     A77     A78     A79     A80     A81     A82     P83     P84     P85     P86     A87     A88     A89     A90     A91     A92     O93     O94     O95     O96

#element
Pd Pd Pd Pd Ag Ag Ag Ag Ag Ag Pd Pd Pd Pd Ag Ag Ag Ag Ag Ag O  O  O  O  Pd Pd Pd Pd Ag Ag Ag Ag Ag Ag Pd Pd Pd Pd Ag Ag Ag Ag Ag Ag O  O  O  O  Pd Pd Pd Pd Ag Ag Ag Ag Ag Ag Pd Pd Pd Pd Ag Ag Ag Ag Ag Ag O  O  O  O  Pd Pd Pd Pd Ag Ag Ag Ag Ag Ag Pd Pd Pd Pd Ag Ag Ag Ag Ag Ag O  O  O  O 

#matrix
288
 2.194185932983E-01
 -8.157092414118E-02 3.032475764805E-02
 1.024706271174E+01 -3.809441864361E+00 4.785478415482E+02
 7.324520825693E-03 -2.722959452352E-03 3.420622797100E-01 2.671482379943E+03
 1.022915298309E-02 -3.802783754419E-03 4.777114397194E-01 3.859463825067E+02 3.610684312065E+03
 -4.583675690523E-03 1.704024515057E-03 -2.140621336827E-01 -1.558601551542E+02 -3.029238022711E+02 3.801713669643E+03
 0.000000000000E+00 0.000000000000E+00 0.000000000000E+00 0.000000000000E+00 0.000000000000E+00 0.000000000000E+00 0.000000000000E+00
 0.000000000000E+00 0.000000000000E+00 0.000000000000E+00 0.000000000000E+00 0.000000000000E+00 0.000000000000E+00 0.000000000000E+00 0.000000000000E+00
 0.000000000000E+00 0.000000000000E+00 0.000000000000E+00 0.000000000000E+00 0.000000000000E+00 0.000000000000E+00 0.000000000000E+00 0.000000000000E+00 0.000000000000E+00
 -2.961121605121E+00 1.100824785144E+00 -1.382872724169E+02 -5.054704204157E-01 -3.944372322745E-01 3.842517133291E-01 0.000000000000E+00 0.000000000000E+00 0.000000000000E+00 6.911535190979E+02
 -2.333533233447E+00 8.675129099367E-01 -1.089782822122E+02 -3.357278756917E-01 -3.181878023448E-02 4.429256910602E-01 0.000000000000E+00 0.000000000000E+00 0.000000000000E+00 1.842390574830E+02 3.970706196112E+02
 2.198974966306E+00 -8.174896095569E-01 1.026942796533E+02 -2.042770708875E-01 1.771656930168E-01 -3.865989979187E-01 0.000000000000E+00 0.000000000000E+00 0.000000000000E+00 1.768282719408E+02 -9.217332372007E+01 3.565049292500E+02
 7.140525988171E-03 -2.654557642331E-03 3.334695410073E-01 -3.237163434192E-01 6.609968013410E-01 8.776181354790E-01 0.000000000000E+00 0.000000000000E+00 0.000000000000E+00 -3.074941719052E-01 -4.145719954974E-01 5.329061514819E-01 2.556470045930E+03
 1.988579534466E-04 -7.392731304869E-05 9.286860739839E-03 -3.129040372117E-01 3.812943954662E+00 9.153967575099E-02 0.000000000000E+00 0.000000000000E+00 0.000000000000E+00 5.294838206731E-01 1.584281066527E-01 -1.979318059111E-01 7.669164173206E+02 4.075067257853E+03
 -7.951529336645E-03 2.956055758885E-03 -3.713441898523E-01 -7.905935223699E-01 3.093453037202E-01 2.688339427689E-01 0.000000000000E+00 0.000000000000E+00 0.000000000000E+00 1.558487546747E-02 3.456044084948E-02 -9.911512265240E-02 -3.565531334980E+02 -2.463044944898E+02 2.331024520136E+03
 1.010336055613E-02 -3.756019237506E-03 4.718368104624E-01 -2.589101265293E-04 1.072863254515E-03 -2.316029897516E-03 0.000000000000E+00 0.000000000000E+00 0.000000000000E+00 2.876291441321E-02 -2.533568533118E-01 8.842099513384E-02 6.144624995367E-03 -1.113537627307E-02 -3.272958603242E-03 3.115340235929E-01
 8.480336515858E-03 -3.152644797455E-03 3.960400018451E-01 -2.173182861425E-04 9.005163562402E-04 -1.943978224136E-03 0.000000000000E+00 0.000000000000E+00 0.000000000000E+00 2.414238233366E-02 -2.126571018372E-01 7.421686968771E-02 5.157540150625E-03 -9.346567164634E-03 -2.747183989304E-03 2.614885751657E-01 2.194825276341E-01
 -4.236378630105E-01 1.574913568970E-01 -1.978430216001E+01 1.085620295400E-02 -4.498557622686E-02 9.711204019701E-02 0.000000000000E+00 0.000000000000E+00 0.000000000000E+00 -1.206040260394E+00 1.062335203419E+01 -3.707526937762E+00 -2.576465313276E-01 4.669106859976E-01 1.372364354114E-01 -1.306274355713E+01 -1.096431831463E+01 5.477259506732E+02
 1.144553701334E-03 -4.254985949166E-04 5.345177625208E-02 -5.196612563959E-01 8.076425176828E-01 3.365343121555E-01 0.000000000000E+00 0.000000000000E+00 0.000000000000E+00 -5.767670919234E+02 3.983057703519E+02 -3.934206992952E+02 -4.895733621898E+02 -3.475556359016E+02 4.344251462521E+02 1.214375301431E-03 1.019295625002E-03 -5.091923174792E-02 4.246506077844E+03
 -7.819979748420E-03 2.907150963167E-03 -3.652006955386E-01 5.343103842617E-01 -4.384636267364E-01 -1.099015909436E+00 0.000000000000E+00 0.000000000000E+00 0.000000000000E+00 3.979461653455E+02 -2.750966948076E+02 2.717932657786E+02 -3.454019828737E+02 -2.459786244522E+02 3.072998754417E+02 3.839697851744E-03 3.222881111796E-03 -1.610000339473E-01 2.715770442482E+00 4.329980242099E+03
 -8.602227902715E-04 3.197959066054E-04 -4.017324487181E-02 7.971859970611E-01 -3.580056085910E-01 -5.409629436191E-01 0.000000000000E+00 0.000000000000E+00 0.000000000000E+00 -3.940063354386E+02 2.715584671534E+02 -2.687916493705E+02 4.338548727894E+02 3.076121795765E+02 -3.849097711493E+02 1.256470527523E-03 1.054628589810E-03 -5.268430105597E-02 -2.738245388924E+02 -4.301947004882E+01 4.868929217792E+03
 0.000000000000E+00 0.000000000000E+00 0.000000000000E+00 0.000000000000E+00 0.000000000000E+00 0.000000000000E+00 0.000000000000E+00 0.000000000000E+00 0.000000000000E+00 0.000000000000E+00 0.000000000000E+00 0.000000000000E+00 0.000000000000E+00 0.000000000000E+00 0.000000000000E+00 0.000000000000E+00 0.000000000000E+00 0.000000000000E+00 0.000000000000E+00 0.000000000000E+00 0.000000000000E+00 0.000000000000E+00
 0.000000000000E+00 0.000000000000E+00 0.000000000000E+00 0.000000000000E+00 0.000000000000E+00 0.000000000000E+00 0.000000000000E+00 0.000000000000E+00 0.000000000000E+00 0.000000000000E+00 0.000000000000E+00 0.000000000000E+00 0.000000000000E+00 0.000000000000E+00 0.000000000000E+00 0.000000000000E+00 0.000000000000E+00 0.000000000000E+00 0.000000000000E+00 0.000000000000E+00 0.000000000000E+00 0.000000000000E+00 0.000000000000E+00
 0.000000000000E+00 0.000000000000E+00 0.000000000000E+00 0.000000000000E+00 0.000000000000E+00 0.000000000000E+00 0.000000000000E+00 0.000000000000E+00 0.000000000000E+00 0.000000000000E+00 0.000000000000E+00 0.000000000000E+00 0.000000000000E+00 0.000000000000E+00 0.000000000000E+00 0.000000000000E+00 0.000000000000E+00 0.000000000000E+00 0.000000000000E+00 0.000000000000E+00 0.000000000000E+00 0.000000000000E+00 0.000000000000E+00 0.000000000000E+00
 -3.455666398563E+00 1.284676459808E+00 -1.613829975147E+02 -7.498095171944E-01 -2.865989602170E-01 5.845594432810E-01 0.000000000000E+00 0.000000000000E+00 0.000000000000E+00 3.002605143673E+02 -6.836606064849E+00 1.147352255424E+01 -1.194049569009E+00 -1.863080474324E+00 -8.149103534936E+00 -3.506398495054E+00 -2.943123630160E+00 1.470246614536E+02 -5.786105104122E+02 -3.970525430272E+02 -3.962111240939E+02 0.000000000000E+00 0.000000000000E+00 0.000000000000E+00 9.743790299143E+02
 1.940600885378E+00 -7.214366167880E-01 9.062795760387E+01 2.230801421220E-01 -3.034776827646E-01 -9.662629158787E-01 0.000000000000E+00 0.000000000000E+00 0.000000000000E+00 7.007418068614E+01 -3.618654542439E+01 9.129070626721E+01 7.537906195274E-01 5.457725481949E-01 1.084901763449E+01 2.747268335317E+00 2.305941657078E+00 -1.151940366994E+02 -3.966235704082E+02 -2.710976908228E+02 -2.704379394091E+02 0.000000000000E+00 0.000000000000E+00 0.000000000000E+00 -2.533955652478E+01 5.977278938582E+02
 5.168907729077E+00 -1.921590025364E+00 2.413930417422E+02 7.028159805026E-01 1.595154879438E-01 -8.587329358020E-01 0.000000000000E+00 0.000000000000E+00 0.000000000000E+00 -5.335215927133E+00 -1.324192493592E+02 1.539582815216E+02 -8.572639770638E+00 1.105493123274E+01 -1.120633826929E+03 -4.763040660665E+00 -3.997896285772E+00 1.997161593617E+02 -3.957736397554E+02 -2.708586252889E+02 -2.698050164501E+02 0.000000000000E+00 0.000000000000E+00 0.000000000000E+00 7.433882478077E+00 -4.642852418038E+01 1.077618526396E+03
 -1.222651524882E-03 4.545321947793E-04 -5.709902092504E-02 -1.482363501592E-01 -3.642331138418E-01 1.762135966462E-01 0.000000000000E+00 0.000000000000E+00 0.000000000000E+00 5.307061249817E-01 3.006868921902E-01 -3.122385320607E-01 -3.481534662056E-02 1.300676837178E+00 1.824721030018E-01 1.496788491808E-05 1.256341395854E-05 -6.276092736854E-04 -4.965139957569E+02 3.363920861043E+02 4.450139940927E+02 0.000000000000E+00 0.000000000000E+00 0.000000000000E+00 -2.201056317199E-01 -1.386694214997E-01 1.463564317422E-01 2.559882198515E+03
 5.474638723021E-04 -2.035248395604E-04 2.556709779042E-02 -1.374196191628E-01 -2.716112522970E+00 -2.206510412565E-01 0.000000000000E+00 0.000000000000E+00 0.000000000000E+00 6.053415446175E-02 1.362161665349E-01 4.202371103889E-01 1.294251084552E+00 -1.120644429966E+03 -6.917947103116E+00 2.472818453763E-03 2.075579953228E-03 -1.036862457343E-01 3.355483045978E+02 -2.270089511998E+02 -3.012696098818E+02 0.000000000000E+00 0.000000000000E+00 0.000000000000E+00 1.280945845500E+00 1.778614791172E-02 -6.355075001580E-01 -7.730439624679E+02 4.044348845973E+03
 1.578386951131E-03 -5.867801826671E-04 7.371221293740E-02 -1.344168614792E-01 -3.446807492301E-01 3.712329081158E-02 0.000000000000E+00 0.000000000000E+00 0.000000000000E+00 5.210470361688E-02 -5.067837852139E-02 1.385333730978E-01 -2.352118605786E-01 -7.601366579088E+00 1.610576717472E-01 2.043379283528E-03 1.715126749914E-03 -8.567969322531E-02 4.436260544019E+02 -2.998997619608E+02 -3.975687891980E+02 0.000000000000E+00 0.000000000000E+00 0.000000000000E+00 2.868564816478E-01 6.608407123297E-02 -1.746870685519E-01 -3.677994304459E+02 2.210370111885E+02 1.239306364523E+03
 -6.804375289041E-03 2.529590460805E-03 -3.177709748885E-01 -1.079080935341E-02 3.525483713957E-04 5.949285398862E-03 0.000000000000E+00 0.000000000000E+00 0.000000000000E+00 4.188675939691E+00 -3.096086404814E+00 2.806994633565E+00 -4.063284569472E-03 5.856203574991E-04 6.083277495959E-03 -1.739597653052E-02 -1.460145207936E-02 7.294201054622E-01 -6.348593758420E-01 2.073558603879E-01 -2.678645198677E+01 0.000000000000E+00 0.000000000000E+00 0.000000000000E+00 4.255817548238E+00 3.688802928661E+00 4.082140156527E+00 -5.823420777587E-03 1.008467628354E-03 5.921039797404E-03 2.744519250160E-01
 2.241526234221E-03 -8.333084432986E-04 1.046814654438E-01 3.554754290686E-03 -1.161379832459E-04 -1.959838887473E-03 0.000000000000E+00 0.000000000000E+00 0.000000000000E+00 -1.379851434795E+00 1.019925945441E+00 -9.246921051797E-01 1.338544476559E-03 -1.929175477347E-04 -2.003979133720E-03 5.730656541810E-03 4.810072417130E-03 -2.402886720248E-01 2.091380744803E-01 -6.830804903246E-02 8.824106887045E+00 0.000000000000E+00 0.000000000000E+00 0.000000000000E+00 -1.401969508913E+00 -1.215181142461E+00 -1.344755964205E+00 1.918376028861E-03 -3.322136932923E-04 -1.950534101364E-03 -9.041111987853E-02 2.978361546276E-02
 -2.844083455131E-01 1.057314752968E-01 -1.328214764486E+01 -4.510327700316E-01 1.473576849640E-02 2.486674155084E-01 0.000000000000E+00 0.000000000000E+00 0.000000000000E+00 1.750777026976E+02 -1.294097951030E+02 1.173263768802E+02 -1.698366113952E-01 2.447767941949E-02 2.542679988138E-01 -7.271146421919E-01 -6.103094922863E-01 3.048820157121E+01 -2.653576515797E+01 8.667031825882E+00 -1.119616447963E+03 0.000000000000E+00 0.000000000000E+00 0.000000000000E+00 1.778840784472E+02 1.541840791107E+02 1.706247346381E+02 -2.434065433233E-01 4.215179167814E-02 2.474868097309E-01 1.147150393694E+01 -3.778991594137E+00 4.794843489170E+02
 -1.173026324388E-03 4.360835601211E-04 -5.478147557072E-02 9.266029116068E-02 -1.850614823758E-01 -3.114152794245E-02 0.000000000000E+00 0.000000000000E+00 0.000000000000E+00 -5.455975846916E+02 -3.897018150735E+02 -4.018719522237E+02 -3.546329133242E-01 5.507790145804E-01 -3.119091941710E-01 -6.340534965886E-03 -5.321978751781E-03 2.658611130790E-01 -3.709144252826E+00 5.362025018385E+01 7.257372550111E-01 0.000000000000E+00 0.000000000000E+00 0.000000000000E+00 3.253539186953E-01 -1.145514893938E-01 3.247481471707E-01 -4.542124105913E+02 -3.408281137629E+02 4.327797561579E+02 6.039599797916E-03 -1.989590640751E-03 2.524423643789E-01 2.669538807412E+03
 1.388285535953E-02 -5.161081950133E-03 6.483429109119E-01 6.724422944783E-02 -2.140393939675E-01 6.694130000197E-01 0.000000000000E+00 0.000000000000E+00 0.000000000000E+00 -3.899649201008E+02 -2.787519681399E+02 -2.870176988153E+02 -1.366632537147E+00 4.163508845924E-01 -1.031421791159E-01 -7.119387792619E-04 -5.975715103190E-04 2.985187169803E-02 5.385290028677E+01 -1.118088365405E+03 -3.817138532374E+00 0.000000000000E+00 0.000000000000E+00 0.000000000000E+00 4.811259747379E-01 6.617881551542E-02 5.994740884208E-01 -3.398983012831E+02 -2.530944180584E+02 3.230125334872E+02 -5.974602041635E-04 1.968178803562E-04 -2.497255970724E-02 3.885194280469E+02 3.613373508423E+03
 7.499418424275E-03 -2.787979278301E-03 3.502301684647E-01 -2.096639872919E-01 -3.736779519345E-01 -4.787873105791E-02 0.000000000000E+00 0.000000000000E+00 0.000000000000E+00 -4.019978557736E+02 -2.869010904019E+02 -2.962562010522E+02 -1.827846114906E-01 -1.405996008606E+00 -5.804419702727E-01 -4.200297935260E-03 -3.525553676917E-03 1.761201366035E-01 1.672072573190E-01 -5.668051757424E+00 1.215361000522E+00 0.000000000000E+00 0.000000000000E+00 0.000000000000E+00 6.476307076450E-01 2.162094276724E-04 3.232141713271E-01 4.335396599962E+02 3.227587346522E+02 -4.130747347224E+02 -1.435102275529E-02 4.727574924579E-03 -5.998420817302E-01 -1.568262830634E+02 -3.003618198274E+02 3.801400616367E+03
 0.000000000000E+00 0.000000000000E+00 0.000000000000E+00 0.000000000000E+00 0.000000000000E+00 0.000000000000E+00 0.000000000000E+00 0.000000000000E+00 0.000000000000E+00 0.000000000000E+00 0.000000000000E+00 0.000000000000E+00 0.000000000000E+00 0.000000000000E+00 0.000000000000E+00 0.000000000000E+00 0.000000000000E+00 0.000000000000E+00 0.000000000000E+00 0.000000000000E+00 0.000000000000E+00 0.000000000000E+00 0.000000000000E+00 0.000000000000E+00 0.000000000000E+00 0.000000000000E+00 0.000000000000E+00 0.000000000000E+00 0.000000000000E+00 0.000000000000E+00 0.000000000000E+00 0.000000000000E+00 0.000000000000E+00 0.000000000000E+00 0.000000000000E+00 0.000000000000E+00 0.000000000000E+00
 0.000000000000E+00 0.000000000000E+00 0.000000000000E+00 0.000000000000E+00 0.000000000000E+00 0.000000000000E+00 0.000000000000E+00 0.000000000000E+00 0.000000000000E+00 0.000000000000E+00 0.000000000000E+00 0.000000000000E+00 0.000000000000E+00 0.000000000000E+00 0.000000000000E+00 0.000000000000E+00 0.000000000000E+00 0.000000000000E+00 0.000000000000E+00 0.000000000000E+00 0.000000000000E+00 0.000000000000E+00 0.000000000000E+00 0.000000000000E+00 0.000000000000E+00 0.000000000000E+00 0.000000000000E+00 0.000000000000E+00 0.000000000000E+00 0.000000000000E+00 0.000000000000E+00 0.000000000000E+00 0.000000000000E+00 0.000000000000E+00 0.000000000000E+00 0.000000000000E+00 0.000000000000E+00 0.000000000000E+00
 0.000000000000E+00 0.000000000000E+00 0.000000000000E+00 0.000000000000E+00 0.000000000000E+00 0.000000000000E+00 0.000000000000E+00 0.000000000000E+00 0.000000000000E+00 0.000000000000E+00 0.000000000000E+00 0.000000000000E+00 0.000000000000E+00 0.000000000000E+00 0.000000000000E+00 0.000000000000E+00 0.000000000000E+00 0.000000000000E+00 0.000000000000E+00 0.000000000000E+00 0.000000000000E+00 0.000000000000E+00 0.000000000000E+00 0.000000000000E+00 0.000000000000E+00 0.000000000000E+00 0.000000000000E+00 0.000000000000E+00 0.000000000000E+00 0.000000000000E+00 0.000000000000E+00 0.000000000000E+00 0.000000000000E+00 0.000000000000E+00 0.000000000000E+00 0.000000000000E+00 0.000000000000E+00 0.000000000000E+00 0.000000000000E+00
 1.930875383091E-01 -7.178210699133E-02 9.017376714382E+00 -5.477187369278E+02 -3.896554224450E+02 -4.030215738854E+02 0.000000000000E+00 0.000000000000E+00 0.000000000000E+00 2.927889612366E+01 2.512371677928E+01 2.201841243364E+01 -3.198375394554E-01 -1.901062486881E-02 -1.632144126365E-01 6.043093211364E-01 5.072318635405E-01 -2.533892638804E+01 -5.381282097970E+02 -3.983147384886E+02 3.930261221552E+02 0.000000000000E+00 0.000000000000E+00 0.000000000000E+00 1.085892910663E+02 9.857671476567E+01 3.981605382842E+01 1.080854554407E-01 3.868234473274E-01 -7.089075692125E-03 -3.300184248630E+00 1.087160724804E+00 -1.379406487989E+02 3.358074155272E-02 1.555192059573E-01 1.579419019449E-01 0.000000000000E+00 0.000000000000E+00 0.000000000000E+00 6.910326175026E+02
 1.452100356120E-01 -5.398319541383E-02 6.781450554960E+00 -3.892122778395E+02 -2.763840236202E+02 -2.862776605553E+02 0.000000000000E+00 0.000000000000E+00 0.000000000000E+00 1.456114592905E+01 2.577899003715E+01 1.148661172497E+01 -2.850261941081E-01 1.855019186249E-01 -2.217893341003E-02 4.328288873278E-01 3.632983894748E-01 -1.814868467359E+01 -3.981464695926E+02 -2.951806357723E+02 2.909327139610E+02 0.000000000000E+00 0.000000000000E+00 0.000000000000E+00 7.334050483602E+01 7.245632623567E+01 2.700104094307E+01 -1.261891531668E-01 2.512990237750E-01 9.280289543248E-02 -2.612023095902E+00 8.604637523869E-01 -1.091769832778E+02 2.381146392823E-01 3.494093150501E-01 1.360020318607E-03 0.000000000000E+00 0.000000000000E+00 0.000000000000E+00 1.843705396553E+02 3.973852497307E+02
 -1.468480346815E-01 5.459213696172E-02 -6.857946712074E+00 -4.027654031939E+02 -2.864570741269E+02 -2.962353593100E+02 0.000000000000E+00 0.000000000000E+00 0.000000000000E+00 -1.922269460793E+01 -2.044569901026E+01 -1.467242558177E+01 1.613506057784E-01 -4.180505029010E-01 2.633061128481E-02 -4.359694614643E-01 -3.659344555028E-01 1.828037017650E+01 3.934218286982E+02 2.915989761435E+02 -2.875810233146E+02 0.000000000000E+00 0.000000000000E+00 0.000000000000E+00 -7.676346439721E+01 -7.206714563714E+01 -2.865860307401E+01 1.695263594836E-01 1.766688791712E-02 1.203911665009E-02 2.461435365519E+00 -8.108565020712E-01 1.028827379675E+02 -1.810479874748E-01 -5.335348675633E-01 -4.690372357707E-02 0.000000000000E+00 0.000000000000E+00 0.000000000000E+00 1.778411647688E+02 -9.374595595650E+01 3.575083601494E+02
 1.870997040037E-03 -6.955607331498E-04 8.737739001311E-02 9.413484071330E-01 9.026162840733E-02 1.240834380240E+00 0.000000000000E+00 0.000000000000E+00 0.000000000000E+00 1.176708851269E-01 -1.178040205090E-01 5.649795978126E-02 3.929184537731E-01 7.581562200294E-01 3.165810067978E-02 -2.947493857854E-04 -2.474002551326E-04 1.235895712358E-02 -4.660458903036E+02 3.448745889356E+02 -4.328995327064E+02 0.000000000000E+00 0.000000000000E+00 0.000000000000E+00 7.270291441744E-01 -4.339247886861E-01 -1.179339252152E-01 4.711177548116E-01 -6.462810416604E-01 3.623225800174E-02 7.036185435927E-03 -2.317890118272E-03 2.940975142536E-01 -1.001725948286E-02 -9.236946936773E-01 -5.973061857268E-01 0.000000000000E+00 0.000000000000E+00 0.000000000000E+00 -3.434853536022E-01 -2.285002772145E-01 -2.508276507758E-01 2.555754572049E+03
 -6.384125892789E-03 2.373358798270E-03 -2.981449174371E-01 8.775855833096E-01 7.319574505177E-01 1.301605314708E+00 0.000000000000E+00 0.000000000000E+00 0.000000000000E+00 -7.721820393459E-01 -2.373918410225E-01 -3.629055906710E-01 -1.818194700552E+00 -1.520980398798E+00 -3.753002474388E-01 -1.919135964702E-03 -1.610842126236E-03 8.047012223276E-02 3.443693409122E+02 -2.567448621050E+02 3.184483301725E+02 0.000000000000E+00 0.000000000000E+00 0.000000000000E+00 5.578246876938E-01 2.722452059077E-01 3.392716581847E-01 -3.402154774558E-01 3.486492611301E-01 -6.376906653515E-01 -1.811441390021E-03 5.967327234325E-04 -7.571437888787E-02 1.287587058411E+00 1.854487869032E+00 -1.204829973936E+00 0.000000000000E+00 0.000000000000E+00 0.000000000000E+00 1.405170657584E-01 -4.754933290029E-01 -5.827888201228E-02 7.673963537583E+02 4.075188299270E+03
 -7.702011127755E-03 2.863295019774E-03 -3.596914456807E-01 -5.765357907790E-01 7.762421302778E-01 -6.914107696154E-01 0.000000000000E+00 0.000000000000E+00 0.000000000000E+00 1.012618351392E-01 6.548407262019E-02 1.820756339369E-01 -1.018755228073E+00 -1.265789651503E+00 1.627331366253E-01 -3.552553910674E-03 -2.981864547532E-03 1.489599760978E-01 -4.319350781792E+02 3.197422330824E+02 -3.994403637993E+02 0.000000000000E+00 0.000000000000E+00 0.000000000000E+00 -5.937739918976E-01 4.474618822145E-01 -1.388755064865E-01 -2.935351606570E-01 1.028460925026E+00 6.648566723769E-02 -1.464692217050E-02 4.825051367854E-03 -6.122100449222E-01 1.197267515568E-01 -4.394576078257E-01 -1.914494564195E-01 0.000000000000E+00 0.000000000000E+00 0.000000000000E+00 3.450399234463E-01 -8.294125722755E-02 3.044558531443E-02 -3.527698736504E+02 -2.447940195693E+02 2.331989507566E+03
 8.936996459611E-05 -3.322412423207E-05 4.173664674433E-03 -1.041165265498E-02 1.526999779601E-03 6.444550545976E-04 0.000000000000E+00 0.000000000000E+00 0.000000000000E+00 4.277807575720E-01 -3.611574577715E-01 2.859232348970E-01 2.441849175026E-03 -2.578018280973E-03 3.286836712283E-03 2.366330341981E-04 1.986198304634E-04 -9.922115752328E-03 3.281823844426E-03 -7.931822986427E-03 -9.784078456086E-03 0.000000000000E+00 0.000000000000E+00 0.000000000000E+00 3.146046371340E-01 1.135060722261E-01 1.817821744792E-01 -1.196664153729E-03 9.397695671968E-03 -2.767432442246E-03 9.946615461850E-03 -3.276656350122E-03 4.157472694834E-01 -1.871132672400E-03 1.139506204301E-02 -3.813904435001E-03 0.000000000000E+00 0.000000000000E+00 0.000000000000E+00 2.084051267651E-02 -2.250710161820E-01 8.511344511946E-02 3.903486091729E-03 -1.051748390044E-03 -1.473412052341E-02 2.375304540861E-01
 8.695034425113E-05 -3.232460762938E-05 4.060666039992E-03 -1.012976548290E-02 1.485657481322E-03 6.270069492020E-04 0.000000000000E+00 0.000000000000E+00 0.000000000000E+00 4.161989355484E-01 -3.513794083282E-01 2.781820918924E-01 2.375738060738E-03 -2.508220497003E-03 3.197848235946E-03 2.302263839725E-04 1.932423573394E-04 -9.653482400528E-03 3.192971087479E-03 -7.717075220133E-03 -9.519182353729E-03 0.000000000000E+00 0.000000000000E+00 0.000000000000E+00 3.060869680930E-01 1.104329860625E-01 1.768605674302E-01 -1.164265428435E-03 9.143260574599E-03 -2.692506421285E-03 9.677318800002E-03 -3.187943498952E-03 4.044912445297E-01 -1.820473251164E-03 1.108654984793E-02 -3.710646021433E-03 0.000000000000E+00 0.000000000000E+00 0.000000000000E+00 2.027627245666E-02 -2.189773983510E-01 8.280906663645E-02 3.797802326422E-03 -1.023273143200E-03 -1.433520598937E-02 2.310995069344E-01 2.248426725358E-01
 -4.289669665060E-03 1.594725012040E-03 -2.003317650058E-01 4.997490013455E-01 -7.329447496941E-02 -3.093320346151E-02 0.000000000000E+00 0.000000000000E+00 0.000000000000E+00 -2.053305209805E+01 1.733519978344E+01 -1.372403170144E+01 -1.172063386183E-01 1.237423206537E-01 -1.577649023629E-01 -1.135815095304E-02 -9.533554874601E-03 4.762517155324E-01 -1.575242896775E-01 3.807196367064E-01 4.696260622158E-01 0.000000000000E+00 0.000000000000E+00 0.000000000000E+00 -1.510071056310E+01 -5.448178893532E+00 -8.725364086650E+00 5.743869254860E-02 -4.510800717857E-01 1.328340125372E-01 -4.774276772911E-01 1.572762550759E-01 -1.995545660440E+01 8.981251251881E-02 -5.469516766429E-01 1.830636303169E-01 0.000000000000E+00 0.000000000000E+00 0.000000000000E+00 -1.000323939220E+00 1.080318555527E+01 -4.085360951721E+00 -1.873634609944E-01 5.048287961663E-02 7.072231720829E-01 -1.140122621762E+01 -1.109254713244E+01 5.472475509107E+02
 -5.115805626764E-01 1.901848819779E-01 -2.389131216756E+01 9.558189367248E-01 -7.461785912783E-03 -2.287807630386E+00 0.000000000000E+00 0.000000000000E+00 0.000000000000E+00 -5.395677878666E+02 -3.977738366624E+02 3.940526095670E+02 -4.676173379366E+02 3.451831165155E+02 -4.319280442723E+02 -2.316994840338E-03 -1.944788156615E-03 9.715250062734E-02 3.058635059817E-01 9.495069431090E-01 5.345940856460E-01 0.000000000000E+00 0.000000000000E+00 0.000000000000E+00 -5.428037276659E+02 3.953839318425E+02 3.956288080649E+02 -4.736734249338E+02 -3.342130220968E+02 -4.410045313412E+02 -1.094956731042E-02 3.607053011789E-03 -4.576685133543E-01 9.680899437570E-02 -5.606815250599E-01 3.364181099407E-01 0.000000000000E+00 0.000000000000E+00 0.000000000000E+00 2.062087164374E-01 -1.774199794135E-01 2.822394000848E-01 -5.988470908992E-01 2.639671521719E+00 8.639066612585E-01 -1.008792845043E-02 -9.814805852390E-03 4.842105605914E-01 4.247255435331E+03
 1.957607274924E-01 -7.277589019268E-02 9.142217261345E+00 -7.869583438388E-01 -1.027343497961E-01 8.229728824278E-01 0.000000000000E+00 0.000000000000E+00 0.000000000000E+00 -3.978498109745E+02 -2.931089231486E+02 2.903806861320E+02 3.458203064004E+02 -2.562646373937E+02 3.185650553118E+02 7.623692449502E-03 6.399007251698E-03 -3.196644086504E-01 8.969241492168E-01 -7.690538407068E-01 5.970142345253E-02 0.000000000000E+00 0.000000000000E+00 0.000000000000E+00 3.956870267042E+02 -2.884754511888E+02 -2.895631058903E+02 -3.357950264523E+02 -2.340757982861E+02 -3.112542923963E+02 -7.620226192963E-03 2.510287307306E-03 -3.185091697494E-01 2.776200559685E-01 4.352430072325E-01 1.550482990929E+00 0.000000000000E+00 0.000000000000E+00 0.000000000000E+00 7.878762246673E-03 2.633426832207E-01 -1.117002831943E-01 5.397934911847E-01 -1.912556485640E+00 4.121767442652E-01 -1.068188250870E-03 -1.039267907936E-03 5.127197663151E-02 4.546694555330E+00 4.328777523157E+03
 -2.397729501322E+01 8.913784758321E+00 -1.119763106513E+03 -6.866668020621E-01 -3.839157204912E-01 1.237412119526E+00 0.000000000000E+00 0.000000000000E+00 0.000000000000E+00 3.938208765172E+02 2.904149807133E+02 -2.873446740864E+02 -4.322581177789E+02 3.185872210716E+02 -3.962341918309E+02 -1.398953748098E-02 -1.174223020953E-02 5.865867826874E-01 -4.934681709299E-01 1.861268659930E-01 2.437457333267E-01 0.000000000000E+00 0.000000000000E+00 0.000000000000E+00 3.961712352996E+02 -2.886865318977E+02 -2.891992185178E+02 -4.415849524954E+02 -3.119300946870E+02 -4.108761956478E+02 1.880750454205E-03 -6.195648100003E-04 7.861134965106E-02 -1.422886224172E-01 -5.129100162373E-01 -9.866784089887E-01 0.000000000000E+00 0.000000000000E+00 0.000000000000E+00 -3.430879479792E-02 2.500879499514E-01 -4.251697408364E-01 3.525738743510E-01 2.102465622695E+00 9.599873521998E-01 1.207244078015E-02 1.174558909729E-02 -5.794651842136E-01 -2.764345550912E+02 -4.241548057248E+01 4.868538900862E+03
 0.000000000000E+00 0.000000000000E+00 0.000000000000E+00 0.000000000000E+00 0.000000000000E+00 0.000000000000E+00 0.000000000000E+00 0.000000000000E+00 0.000000000000E+00 0.000000000000E+00 0.000000000000E+00 0.000000000000E+00 0.000000000000E+00 0.000000000000E+00 0.000000000000E+00 0.000000000000E+00 0.000000000000E+00 0.000000000000E+00 0.000000000000E+00 0.000000000000E+00 0.000000000000E+00 0.000000000000E+00 0.000000000000E+00 0.000000000000E+00 0.000000000000E+00 0.000000000000E+00 0.000000000000E+00 0.000000000000E+00 0.000000000000E+00 0.000000000000E+00 0.000000000000E+00 0.000000000000E+00 0.000000000000E+00 0.000000000000E+00 0.000000000000E+00 0.000000000000E+00 0.000000000000E+00 0.000000000000E+00 0.000000000000E+00 0.000000000000E+00 0.000000000000E+00 0.000000000000E+00 0.000000000000E+00 0.000000000000E+00 0.000000000000E+00 0.000000000000E+00 0.000000000000E+00 0.000000000000E+00 0.000000000000E+00 0.000000000000E+00 0.000000000000E+00 0.000000000000E+00
 0.000000000000E+00 0.000000000000E+00 0.000000000000E+00 0.000000000000E+00 0.000000000000E+00 0.000000000000E+00 0.000000000000E+00 0.000000000000E+00 0.000000000000E+00 0.000000000000E+00 0.000000000000E+00 0.000000000000E+00 0.000000000000E+00 0.000000000000E+00 0.000000000000E+00 0.000000000000E+00 0.000000000000E+00 0.000000000000E+00 0.000000000000E+00 0.000000000000E+00 0.000000000000E+00 0.000000000000E+00 0.000000000000E+00 0.000000000000E+00 0.000000000000E+00 0.000000000000E+00 0.000000000000E+00 0.000000000000E+00 0.000000000000E+00 0.000000000000E+00 0.000000000000E+00 0.000000000000E+00 0.000000000000E+00 0.000000000000E+00 0.000000000000E+00 0.000000000000E+00 0.000000000000E+00 0.000000000000E+00 0.000000000000E+00 0.000000000000E+00 0.000000000000E+00 0.000000000000E+00 0.000000000000E+00 0.000000000000E+00 0.000000000000E+00 0.000000000000E+00 0.000000000000E+00 0.000000000000E+00 0.000000000000E+00 0.000000000000E+00 0.000000000000E+00 0.000000000000E+00 0.000000000000E+00
 0.000000000000E+00 0.000000000000E+00 0.000000000000E+00 0.000000000000E+00 0.000000000000E+00 0.000000000000E+00 0.000000000000E+00 0.000000000000E+00 0.000000000000E+00 0.000000000000E+00 0.000000000000E+00 0.000000000000E+00 0.000000000000E+00 0.000000000000E+00 0.000000000000E+00 0.000000000000E+00 0.000000000000E+00 0.000000000000E+00 0.000000000000E+00 0.000000000000E+00 0.000000000000E+00 0.000000000000E+00 0.000000000000E+00 0.000000000000E+00 0.000000000000E+00 0.000000000000E+00 0.000000000000E+00 0.000000000000E+00 0.000000000000E+00 0.000000000000E+00 0.000000000000E+00 0.000000000000E+00 0.000000000000E+00 0.000000000000E+00 0.000000000000E+00 0.000000000000E+00 0.000000000000E+00 0.000000000000E+00 0.000000000000E+00 0.000000000000E+00 0.000000000000E+00 0.000000000000E+00 0.000000000000E+00 0.000000000000E+00 0.000000000000E+00 0.000000000000E+00 0.000000000000E+00 0.000000000000E+00 0.000000000000E+00 0.000000000000E+00 0.000000000000E+00 0.000000000000E+00 0.000000000000E+00 0.000000000000E+00