#BIOSYM hessian 1
#COMMENT: Materials Studio generated
@Type: Hessian
@Units
 distance: 	A
 energy: 	Kcal/Mol
#header
@natom 8

#label
Pd      Ag      Ag      Ag      Ag      Ag      Ag      Pd      

#element
Pd Ag Ag Ag Ag Ag Ag Pd 

#matrix
24        
 1.283091221111e+01
 0.000000000000e+00 0.000000000000e+00
 -1.947613877852e-04 0.000000000000e+00 2.956297849128e-09
 -1.182524183165e+02 0.000000000000e+00 1.794962409637e-03 1.089839460175e+03
 0.000000000000e+00 0.000000000000e+00 0.000000000000e+00 0.000000000000e+00 0.000000000000e+00
 1.794979176113e-03 0.000000000000e+00 -2.724612479875e-08 -1.654291019305e-02 0.000000000000e+00 2.511084317054e-07
 1.182516447967e+02 0.000000000000e+00 -1.794950668322e-03 -1.089832331252e+03 0.000000000000e+00 1.654280198157e-02 1.089825202375e+03
 0.000000000000e+00 0.000000000000e+00 0.000000000000e+00 0.000000000000e+00 0.000000000000e+00 0.000000000000e+00 0.000000000000e+00 0.000000000000e+00
 -1.794979392295e-03 0.000000000000e+00 2.724612808020e-08 1.654291218544e-02 0.000000000000e+00 -2.511084619482e-07 -1.654280397394e-02 0.000000000000e+00 2.511084921911e-07
 -1.283059275113e+01 0.000000000000e+00 1.947565386781e-04 1.182494741053e+02 0.000000000000e+00 -1.794934485291e-03 -1.182487006048e+02 0.000000000000e+00 1.794934701469e-03 1.283027329911e+01
 0.000000000000e+00 0.000000000000e+00 0.000000000000e+00 0.000000000000e+00 0.000000000000e+00 0.000000000000e+00 0.000000000000e+00 0.000000000000e+00 0.000000000000e+00 0.000000000000e+00 0.000000000000e+00
 1.947614745478e-04 0.000000000000e+00 -2.956299166103e-09 -1.794963209259e-03 0.000000000000e+00 2.724613693637e-08 1.794951467938e-03 0.000000000000e+00 -2.724614021782e-08 -1.947566254384e-04 0.000000000000e+00 2.956300483078e-09
 -1.283091221175e+01 0.000000000000e+00 1.947613877950e-04 1.182524183224e+02 0.000000000000e+00 -1.794979176203e-03 -1.182516448026e+02 0.000000000000e+00 1.794979392385e-03 1.283059275177e+01 0.000000000000e+00 -1.947614745575e-04 1.283091221239e+01
 0.000000000000e+00 0.000000000000e+00 0.000000000000e+00 0.000000000000e+00 0.000000000000e+00 0.000000000000e+00 0.000000000000e+00 0.000000000000e+00 0.000000000000e+00 0.000000000000e+00 0.000000000000e+00 0.000000000000e+00 0.000000000000e+00 0.000000000000e+00
 1.947613834859e-04 0.000000000000e+00 -2.956297783870e-09 -1.794962370015e-03 0.000000000000e+00 2.724612419729e-08 1.794950628699e-03 0.000000000000e+00 -2.724612747876e-08 -1.947565343790e-04 0.000000000000e+00 2.956299100844e-09 -1.947613834957e-04 0.000000000000e+00 2.956297718612e-09
 1.182524183178e+02 0.000000000000e+00 -1.794962409657e-03 -1.089839460187e+03 0.000000000000e+00 1.654291019323e-02 1.089832331264e+03 0.000000000000e+00 -1.654291218562e-02 -1.182494741066e+02 0.000000000000e+00 1.794963209279e-03 -1.182524183237e+02 0.000000000000e+00 1.794962370034e-03 1.089839460199e+03
 0.000000000000e+00 0.000000000000e+00 0.000000000000e+00 0.000000000000e+00 0.000000000000e+00 0.000000000000e+00 0.000000000000e+00 0.000000000000e+00 0.000000000000e+00 0.000000000000e+00 0.000000000000e+00 0.000000000000e+00 0.000000000000e+00 0.000000000000e+00 0.000000000000e+00 0.000000000000e+00 0.000000000000e+00
 -1.794979171812e-03 0.000000000000e+00 2.724612473346e-08 1.654291015341e-02 0.000000000000e+00 -2.511084311037e-07 -1.654280194193e-02 0.000000000000e+00 2.511084613466e-07 1.794934480991e-03 0.000000000000e+00 -2.724613687108e-08 1.794979171902e-03 0.000000000000e+00 -2.724612413202e-08 -1.654291015359e-02 0.000000000000e+00 2.511084305021e-07
 -1.182516447980e+02 0.000000000000e+00 1.794950668342e-03 1.089832331264e+03 0.000000000000e+00 -1.654280198175e-02 -1.089825202387e+03 0.000000000000e+00 1.654280397412e-02 1.182487006061e+02 0.000000000000e+00 -1.794951467958e-03 1.182516448039e+02 0.000000000000e+00 -1.794950628719e-03 -1.089832331276e+03 0.000000000000e+00 1.654280194211e-02 1.089825202399e+03
 0.000000000000e+00 0.000000000000e+00 0.000000000000e+00 0.000000000000e+00 0.000000000000e+00 0.000000000000e+00 0.000000000000e+00 0.000000000000e+00 0.000000000000e+00 0.000000000000e+00 0.000000000000e+00 0.000000000000e+00 0.000000000000e+00 0.000000000000e+00 0.000000000000e+00 0.000000000000e+00 0.000000000000e+00 0.000000000000e+00 0.000000000000e+00 0.000000000000e+00
 1.794979396615e-03 0.000000000000e+00 -2.724612814575e-08 -1.654291222524e-02 0.000000000000e+00 2.511084625525e-07 1.654280401375e-02 0.000000000000e+00 -2.511084927954e-07 -1.794934705788e-03 0.000000000000e+00 2.724614028339e-08 -1.794979396705e-03 0.000000000000e+00 2.724612754431e-08 1.654291222543e-02 0.000000000000e+00 -2.511084619508e-07 -1.654280401393e-02 0.000000000000e+00 2.511084933995e-07
 1.283059275177e+01 0.000000000000e+00 -1.947565386879e-04 -1.182494741113e+02 0.000000000000e+00 1.794934485381e-03 1.182487006107e+02 0.000000000000e+00 -1.794934701559e-03 -1.283027329975e+01 0.000000000000e+00 1.947566254482e-04 -1.283059275242e+01 0.000000000000e+00 1.947565343888e-04 1.182494741126e+02 0.000000000000e+00 -1.794934481081e-03 -1.182487006120e+02 0.000000000000e+00 1.794934705878e-03 1.283027330040e+01
 0.000000000000e+00 0.000000000000e+00 0.000000000000e+00 -1.012844509967e-12 0.000000000000e+00 0.000000000000e+00 1.012837884688e-12 0.000000000000e+00 0.000000000000e+00 0.000000000000e+00 0.000000000000e+00 0.000000000000e+00 0.000000000000e+00 0.000000000000e+00 0.000000000000e+00 1.012844509979e-12 0.000000000000e+00 0.000000000000e+00 -1.012837884699e-12 0.000000000000e+00 0.000000000000e+00 0.000000000000e+00 0.000000000000e+00
 -1.947614788687e-04 0.000000000000e+00 2.956299231690e-09 1.794963249081e-03 0.000000000000e+00 -2.724613754084e-08 -1.794951507760e-03 0.000000000000e+00 2.724614082229e-08 1.947566297592e-04 0.000000000000e+00 -2.956300548664e-09 1.947614788784e-04 0.000000000000e+00 -2.956299166431e-09 -1.794963249101e-03 0.000000000000e+00 2.724613747555e-08 1.794951507780e-03 0.000000000000e+00 -2.724614088786e-08 -1.947566297690e-04 0.000000000000e+00 2.956300614251e-09
#dipole
 0.000000000000e+00 0.000000000000e+00 0.000000000000e+00
 0.000000000000e+00 0.000000000000e+00 0.000000000000e+00
 0.000000000000e+00 0.000000000000e+00 0.000000000000e+00
 0.000000000000e+00 0.000000000000e+00 0.000000000000e+00
 0.000000000000e+00 0.000000000000e+00 0.000000000000e+00
 0.000000000000e+00 0.000000000000e+00 0.000000000000e+00
 0.000000000000e+00 0.000000000000e+00 0.000000000000e+00
 0.000000000000e+00 0.000000000000e+00 0.000000000000e+00
 0.000000000000e+00 0.000000000000e+00 0.000000000000e+00
 0.000000000000e+00 0.000000000000e+00 0.000000000000e+00
 0.000000000000e+00 0.000000000000e+00 0.000000000000e+00
 0.000000000000e+00 0.000000000000e+00 0.000000000000e+00
 0.000000000000e+00 0.000000000000e+00 0.000000000000e+00
 0.000000000000e+00 0.000000000000e+00 0.000000000000e+00
 0.000000000000e+00 0.000000000000e+00 0.000000000000e+00
 0.000000000000e+00 0.000000000000e+00 0.000000000000e+00
 0.000000000000e+00 0.000000000000e+00 0.000000000000e+00
 0.000000000000e+00 0.000000000000e+00 0.000000000000e+00
 0.000000000000e+00 0.000000000000e+00 0.000000000000e+00
 0.000000000000e+00 0.000000000000e+00 0.000000000000e+00
 0.000000000000e+00 0.000000000000e+00 0.000000000000e+00
 0.000000000000e+00 0.000000000000e+00 0.000000000000e+00
 0.000000000000e+00 0.000000000000e+00 0.000000000000e+00
 0.000000000000e+00 0.000000000000e+00 0.000000000000e+00

