#BIOSYM hessian 1
@Type: Hessian Update
@Units
 distance: 	A
 energy: 	Kcal/Mol
#header
@natom 88

#label
P1      P2      P3      P4      P5      P6      P7      P8      A9      A10     A11     A12     A13     A14     A15     A16     A17     A18     A19     A20     O21     O22     P23     P24     P25     P26     P27     P28     P29     P30     A31     A32     A33     A34     A35     A36     A37     A38     A39     A40     A41     A42     O43     O44     P45     P46     P47     P48     P49     P50     P51     P52     A53     A54     A55     A56     A57     A58     A59     A60     A61     A62     A63     A64     O65     O66     P67     P68     P69     P70     P71     P72     P73     P74     A75     A76     A77     A78     A79     A80     A81     A82     A83     A84     A85     A86     O87     O88

#element
Pd Pd Pd Pd Pd Pd Pd Pd Ag Ag Ag Ag Ag Ag Ag Ag Ag Ag Ag Ag O  O  Pd Pd Pd Pd Pd Pd Pd Pd Ag Ag Ag Ag Ag Ag Ag Ag Ag Ag Ag Ag O  O  Pd Pd Pd Pd Pd Pd Pd Pd Ag Ag Ag Ag Ag Ag Ag Ag Ag Ag Ag Ag O  O  Pd Pd Pd Pd Pd Pd Pd Pd Ag Ag Ag Ag Ag Ag Ag Ag Ag Ag Ag Ag O  O 

#matrix
264
 0.000000000000E+00
 0.000000000000E+00 0.000000000000E+00
 0.000000000000E+00 0.000000000000E+00 0.000000000000E+00
 0.000000000000E+00 0.000000000000E+00 0.000000000000E+00 0.000000000000E+00
 0.000000000000E+00 0.000000000000E+00 0.000000000000E+00 0.000000000000E+00 0.000000000000E+00
 0.000000000000E+00 0.000000000000E+00 0.000000000000E+00 0.000000000000E+00 0.000000000000E+00 0.000000000000E+00
 0.000000000000E+00 0.000000000000E+00 0.000000000000E+00 0.000000000000E+00 0.000000000000E+00 0.000000000000E+00 3.719622500418E+03
 0.000000000000E+00 0.000000000000E+00 0.000000000000E+00 0.000000000000E+00 0.000000000000E+00 0.000000000000E+00 3.548565188690E+01 3.377887656774E+03
 0.000000000000E+00 0.000000000000E+00 0.000000000000E+00 0.000000000000E+00 0.000000000000E+00 0.000000000000E+00 -4.977895117506E+02 -1.205248225407E+02 2.986136329718E+03
 0.000000000000E+00 0.000000000000E+00 0.000000000000E+00 0.000000000000E+00 0.000000000000E+00 0.000000000000E+00 1.119833010122E-01 -4.143253871924E-01 1.889689492746E-01 3.373315201222E+03
 0.000000000000E+00 0.000000000000E+00 0.000000000000E+00 0.000000000000E+00 0.000000000000E+00 0.000000000000E+00 8.660174338947E-01 2.622595133868E-01 4.233760080292E-01 -5.795707888146E+02 3.532680786026E+03
 0.000000000000E+00 0.000000000000E+00 0.000000000000E+00 0.000000000000E+00 0.000000000000E+00 0.000000000000E+00 -2.126062579094E+00 -9.175578296152E-01 9.661876526997E-01 8.675974619031E+02 4.430295376229E+02 3.177842645135E+03
 0.000000000000E+00 0.000000000000E+00 0.000000000000E+00 0.000000000000E+00 0.000000000000E+00 0.000000000000E+00 0.000000000000E+00 0.000000000000E+00 0.000000000000E+00 0.000000000000E+00 0.000000000000E+00 0.000000000000E+00 0.000000000000E+00
 0.000000000000E+00 0.000000000000E+00 0.000000000000E+00 0.000000000000E+00 0.000000000000E+00 0.000000000000E+00 0.000000000000E+00 0.000000000000E+00 0.000000000000E+00 0.000000000000E+00 0.000000000000E+00 0.000000000000E+00 0.000000000000E+00 0.000000000000E+00
 0.000000000000E+00 0.000000000000E+00 0.000000000000E+00 0.000000000000E+00 0.000000000000E+00 0.000000000000E+00 0.000000000000E+00 0.000000000000E+00 0.000000000000E+00 0.000000000000E+00 0.000000000000E+00 0.000000000000E+00 0.000000000000E+00 0.000000000000E+00 0.000000000000E+00
 0.000000000000E+00 0.000000000000E+00 0.000000000000E+00 0.000000000000E+00 0.000000000000E+00 0.000000000000E+00 0.000000000000E+00 0.000000000000E+00 0.000000000000E+00 0.000000000000E+00 0.000000000000E+00 0.000000000000E+00 0.000000000000E+00 0.000000000000E+00 0.000000000000E+00 0.000000000000E+00
 0.000000000000E+00 0.000000000000E+00 0.000000000000E+00 0.000000000000E+00 0.000000000000E+00 0.000000000000E+00 0.000000000000E+00 0.000000000000E+00 0.000000000000E+00 0.000000000000E+00 0.000000000000E+00 0.000000000000E+00 0.000000000000E+00 0.000000000000E+00 0.000000000000E+00 0.000000000000E+00 0.000000000000E+00
 0.000000000000E+00 0.000000000000E+00 0.000000000000E+00 0.000000000000E+00 0.000000000000E+00 0.000000000000E+00 0.000000000000E+00 0.000000000000E+00 0.000000000000E+00 0.000000000000E+00 0.000000000000E+00 0.000000000000E+00 0.000000000000E+00 0.000000000000E+00 0.000000000000E+00 0.000000000000E+00 0.000000000000E+00 0.000000000000E+00
 0.000000000000E+00 0.000000000000E+00 0.000000000000E+00 0.000000000000E+00 0.000000000000E+00 0.000000000000E+00 1.440287095594E-01 -4.791349954245E-01 -9.304454216201E-02 -3.133386944094E-01 1.095556646257E-01 2.745292460722E-02 0.000000000000E+00 0.000000000000E+00 0.000000000000E+00 0.000000000000E+00 0.000000000000E+00 0.000000000000E+00 2.413046105861E+02
 0.000000000000E+00 0.000000000000E+00 0.000000000000E+00 0.000000000000E+00 0.000000000000E+00 0.000000000000E+00 -1.365384800468E-01 4.551863843921E-01 8.980127071491E-02 2.960658741576E-01 -1.043564425730E-01 -2.423668994332E-02 0.000000000000E+00 0.000000000000E+00 0.000000000000E+00 0.000000000000E+00 0.000000000000E+00 0.000000000000E+00 -2.287345043287E+02 2.168241497424E+02
 0.000000000000E+00 0.000000000000E+00 0.000000000000E+00 0.000000000000E+00 0.000000000000E+00 0.000000000000E+00 5.364100507428E-03 2.857909433206E-01 4.965626827547E-01 -3.180463379132E-01 -1.520633944954E-01 5.615423719471E-01 0.000000000000E+00 0.000000000000E+00 0.000000000000E+00 0.000000000000E+00 0.000000000000E+00 0.000000000000E+00 1.557841548164E+01 -1.321677644904E+01 4.868066060795E+02
 0.000000000000E+00 0.000000000000E+00 0.000000000000E+00 0.000000000000E+00 0.000000000000E+00 0.000000000000E+00 -2.741522094868E+02 -2.733498804052E+02 3.964616565566E+02 2.192754832982E-01 3.917711012157E-02 5.560770727998E-01 0.000000000000E+00 0.000000000000E+00 0.000000000000E+00 0.000000000000E+00 0.000000000000E+00 0.000000000000E+00 1.445540743178E+01 -1.380312381318E+01 -3.063549004328E+01 3.552121835012E+02
 0.000000000000E+00 0.000000000000E+00 0.000000000000E+00 0.000000000000E+00 0.000000000000E+00 0.000000000000E+00 -2.738313725543E+02 -2.732197440527E+02 3.958536567550E+02 -3.117994306946E-01 -1.628725951016E-01 -3.230035444785E-02 0.000000000000E+00 0.000000000000E+00 0.000000000000E+00 0.000000000000E+00 0.000000000000E+00 0.000000000000E+00 -1.377277109054E+01 1.294622018043E+01 -3.507926044827E+01 -1.089168194911E+02 3.453238361562E+02
 0.000000000000E+00 0.000000000000E+00 0.000000000000E+00 0.000000000000E+00 0.000000000000E+00 0.000000000000E+00 3.965210996250E+02 3.953874967120E+02 -5.734083859064E+02 -7.026845520285E-02 3.430830369829E-01 -2.744283789539E-01 0.000000000000E+00 0.000000000000E+00 0.000000000000E+00 0.000000000000E+00 0.000000000000E+00 0.000000000000E+00 -6.824143835414E+00 6.539647559106E+00 2.180699736886E+01 -1.651733429948E+02 -1.369400305301E+02 6.384915370108E+02
 0.000000000000E+00 0.000000000000E+00 0.000000000000E+00 0.000000000000E+00 0.000000000000E+00 0.000000000000E+00 -1.814859693189E+00 3.291118802980E-02 2.824534779326E-01 -5.873610051765E+00 -3.621138817803E+01 -7.333472344355E+01 0.000000000000E+00 0.000000000000E+00 0.000000000000E+00 0.000000000000E+00 0.000000000000E+00 0.000000000000E+00 1.707466428816E-01 -1.610667819333E-01 2.571259065469E-01 -3.554061558711E-01 2.448578399090E-01 5.605883334214E-01 3.797310791586E+03
 0.000000000000E+00 0.000000000000E+00 0.000000000000E+00 0.000000000000E+00 0.000000000000E+00 0.000000000000E+00 4.866935548950E-01 8.723961925358E-01 -1.184629577253E+00 -3.485150712999E+01 -2.100928791601E+02 -4.368675261830E+02 0.000000000000E+00 0.000000000000E+00 0.000000000000E+00 0.000000000000E+00 0.000000000000E+00 0.000000000000E+00 1.845253935483E-01 -1.750146051783E-01 -1.991535504021E-02 -7.413566448229E-01 -1.620100244845E-01 -2.536491659359E-01 8.582378199377E+02 2.795870495614E+03
 0.000000000000E+00 0.000000000000E+00 0.000000000000E+00 0.000000000000E+00 0.000000000000E+00 0.000000000000E+00 7.161958798456E-01 3.301073463009E-01 -5.093327184057E-01 -7.349505069219E+01 -4.364155940548E+02 -9.040798921914E+02 0.000000000000E+00 0.000000000000E+00 0.000000000000E+00 0.000000000000E+00 0.000000000000E+00 0.000000000000E+00 -7.292428891061E-02 6.612976706632E-02 -9.435542320292E-01 -6.619863265834E-02 1.488919879055E-01 -2.068262273561E-01 -7.244829709169E+02 -3.985408229504E+02 2.370526271156E+03
 0.000000000000E+00 0.000000000000E+00 0.000000000000E+00 0.000000000000E+00 0.000000000000E+00 0.000000000000E+00 -2.575751433921E+02 -2.638640624537E+02 -3.911573700579E+02 1.504229695182E-01 2.500068247292E-01 1.024226770575E+00 0.000000000000E+00 0.000000000000E+00 0.000000000000E+00 0.000000000000E+00 0.000000000000E+00 0.000000000000E+00 5.429779603999E-02 -5.276408682616E-02 -4.022740337445E-01 -1.034572017421E-01 -3.310105888290E-01 -1.977118179497E-01 7.310244709531E-01 4.781374438552E-01 -3.244998121067E-01 3.580328812094E+03
 0.000000000000E+00 0.000000000000E+00 0.000000000000E+00 0.000000000000E+00 0.000000000000E+00 0.000000000000E+00 -2.635307051691E+02 -2.698603267552E+02 -4.006653776020E+02 -1.099522015613E-01 6.264055819295E-01 5.006726953097E-01 0.000000000000E+00 0.000000000000E+00 0.000000000000E+00 0.000000000000E+00 0.000000000000E+00 0.000000000000E+00 4.626216732709E-02 -4.434987728449E-02 -1.529622510772E-01 -1.319480608470E-01 -3.311050199699E-01 5.402576584737E-01 -6.723595855836E-01 1.770862949038E-01 -2.194716756087E-01 7.356314232265E+02 2.931687747638E+03
 0.000000000000E+00 0.000000000000E+00 0.000000000000E+00 0.000000000000E+00 0.000000000000E+00 0.000000000000E+00 -3.901980766541E+02 -3.998811878445E+02 -5.922675477467E+02 7.836461757286E-01 -2.947177173443E-01 1.623586140324E-01 0.000000000000E+00 0.000000000000E+00 0.000000000000E+00 0.000000000000E+00 0.000000000000E+00 0.000000000000E+00 1.270570316069E-01 -1.211192348375E-01 -2.051857183909E-01 3.835244350869E-01 -6.570918647830E-01 -1.250584330305E-01 7.393255673684E-01 4.839865719549E-01 1.372916161390E-02 -3.005903256192E+00 2.353561135879E+01 2.451763637760E+03
 0.000000000000E+00 0.000000000000E+00 0.000000000000E+00 0.000000000000E+00 0.000000000000E+00 0.000000000000E+00 0.000000000000E+00 0.000000000000E+00 0.000000000000E+00 0.000000000000E+00 0.000000000000E+00 0.000000000000E+00 0.000000000000E+00 0.000000000000E+00 0.000000000000E+00 0.000000000000E+00 0.000000000000E+00 0.000000000000E+00 0.000000000000E+00 0.000000000000E+00 0.000000000000E+00 0.000000000000E+00 0.000000000000E+00 0.000000000000E+00 0.000000000000E+00 0.000000000000E+00 0.000000000000E+00 0.000000000000E+00 0.000000000000E+00 0.000000000000E+00 0.000000000000E+00
 0.000000000000E+00 0.000000000000E+00 0.000000000000E+00 0.000000000000E+00 0.000000000000E+00 0.000000000000E+00 0.000000000000E+00 0.000000000000E+00 0.000000000000E+00 0.000000000000E+00 0.000000000000E+00 0.000000000000E+00 0.000000000000E+00 0.000000000000E+00 0.000000000000E+00 0.000000000000E+00 0.000000000000E+00 0.000000000000E+00 0.000000000000E+00 0.000000000000E+00 0.000000000000E+00 0.000000000000E+00 0.000000000000E+00 0.000000000000E+00 0.000000000000E+00 0.000000000000E+00 0.000000000000E+00 0.000000000000E+00 0.000000000000E+00 0.000000000000E+00 0.000000000000E+00 0.000000000000E+00
 0.000000000000E+00 0.000000000000E+00 0.000000000000E+00 0.000000000000E+00 0.000000000000E+00 0.000000000000E+00 0.000000000000E+00 0.000000000000E+00 0.000000000000E+00 0.000000000000E+00 0.000000000000E+00 0.000000000000E+00 0.000000000000E+00 0.000000000000E+00 0.000000000000E+00 0.000000000000E+00 0.000000000000E+00 0.000000000000E+00 0.000000000000E+00 0.000000000000E+00 0.000000000000E+00 0.000000000000E+00 0.000000000000E+00 0.000000000000E+00 0.000000000000E+00 0.000000000000E+00 0.000000000000E+00 0.000000000000E+00 0.000000000000E+00 0.000000000000E+00 0.000000000000E+00 0.000000000000E+00 0.000000000000E+00
 0.000000000000E+00 0.000000000000E+00 0.000000000000E+00 0.000000000000E+00 0.000000000000E+00 0.000000000000E+00 0.000000000000E+00 0.000000000000E+00 0.000000000000E+00 0.000000000000E+00 0.000000000000E+00 0.000000000000E+00 0.000000000000E+00 0.000000000000E+00 0.000000000000E+00 0.000000000000E+00 0.000000000000E+00 0.000000000000E+00 0.000000000000E+00 0.000000000000E+00 0.000000000000E+00 0.000000000000E+00 0.000000000000E+00 0.000000000000E+00 0.000000000000E+00 0.000000000000E+00 0.000000000000E+00 0.000000000000E+00 0.000000000000E+00 0.000000000000E+00 0.000000000000E+00 0.000000000000E+00 0.000000000000E+00 0.000000000000E+00
 0.000000000000E+00 0.000000000000E+00 0.000000000000E+00 0.000000000000E+00 0.000000000000E+00 0.000000000000E+00 0.000000000000E+00 0.000000000000E+00 0.000000000000E+00 0.000000000000E+00 0.000000000000E+00 0.000000000000E+00 0.000000000000E+00 0.000000000000E+00 0.000000000000E+00 0.000000000000E+00 0.000000000000E+00 0.000000000000E+00 0.000000000000E+00 0.000000000000E+00 0.000000000000E+00 0.000000000000E+00 0.000000000000E+00 0.000000000000E+00 0.000000000000E+00 0.000000000000E+00 0.000000000000E+00 0.000000000000E+00 0.000000000000E+00 0.000000000000E+00 0.000000000000E+00 0.000000000000E+00 0.000000000000E+00 0.000000000000E+00 0.000000000000E+00
 0.000000000000E+00 0.000000000000E+00 0.000000000000E+00 0.000000000000E+00 0.000000000000E+00 0.000000000000E+00 0.000000000000E+00 0.000000000000E+00 0.000000000000E+00 0.000000000000E+00 0.000000000000E+00 0.000000000000E+00 0.000000000000E+00 0.000000000000E+00 0.000000000000E+00 0.000000000000E+00 0.000000000000E+00 0.000000000000E+00 0.000000000000E+00 0.000000000000E+00 0.000000000000E+00 0.000000000000E+00 0.000000000000E+00 0.000000000000E+00 0.000000000000E+00 0.000000000000E+00 0.000000000000E+00 0.000000000000E+00 0.000000000000E+00 0.000000000000E+00 0.000000000000E+00 0.000000000000E+00 0.000000000000E+00 0.000000000000E+00 0.000000000000E+00 0.000000000000E+00
 0.000000000000E+00 0.000000000000E+00 0.000000000000E+00 0.000000000000E+00 0.000000000000E+00 0.000000000000E+00 -3.038642102551E+02 2.833384352752E+02 -4.104058265645E+02 -7.019991946572E-01 -2.797359013162E-01 -8.123708651366E-02 0.000000000000E+00 0.000000000000E+00 0.000000000000E+00 0.000000000000E+00 0.000000000000E+00 0.000000000000E+00 9.942249056112E+01 -9.471210582241E+01 -1.404880441506E+02 -5.056647658364E+01 -2.109858945086E+01 1.269692047461E+02 4.395612851001E-01 -1.096468246209E-01 6.603893005238E-01 -2.653559991208E-02 -2.427026211007E-01 -5.024047803090E-01 0.000000000000E+00 0.000000000000E+00 0.000000000000E+00 0.000000000000E+00 0.000000000000E+00 0.000000000000E+00 6.068725523332E+02
 0.000000000000E+00 0.000000000000E+00 0.000000000000E+00 0.000000000000E+00 0.000000000000E+00 0.000000000000E+00 2.833776450147E+02 -2.626902734435E+02 3.815040833305E+02 -5.919599272234E-01 1.358552123599E-01 -6.169386156022E-01 0.000000000000E+00 0.000000000000E+00 0.000000000000E+00 0.000000000000E+00 0.000000000000E+00 0.000000000000E+00 -4.202644026233E+00 3.790720880711E+00 -6.075585577109E+01 -4.371750369226E-01 1.821564019071E+02 -4.077201281757E+01 2.063224499763E-01 -1.884922203507E-01 -1.806649819296E-01 9.512297463030E-02 -2.444367599664E-01 -6.286117038937E-01 0.000000000000E+00 0.000000000000E+00 0.000000000000E+00 0.000000000000E+00 0.000000000000E+00 0.000000000000E+00 -2.724557543874E+01 5.258130650492E+02
 0.000000000000E+00 0.000000000000E+00 0.000000000000E+00 0.000000000000E+00 0.000000000000E+00 0.000000000000E+00 -4.106810722451E+02 3.814454471244E+02 -5.523585342039E+02 -1.683294032215E-01 2.277579881114E-01 3.686157850500E-01 0.000000000000E+00 0.000000000000E+00 0.000000000000E+00 0.000000000000E+00 0.000000000000E+00 0.000000000000E+00 -8.606818759915E+01 8.202227410564E+01 1.315770351450E+02 -1.685279307416E+02 -3.405571615097E+01 2.819072316027E+02 7.551947208837E-01 4.408776128362E-01 -8.721226080507E-01 3.002733152043E-01 -1.523051847775E-01 -2.876124833880E-02 0.000000000000E+00 0.000000000000E+00 0.000000000000E+00 0.000000000000E+00 0.000000000000E+00 0.000000000000E+00 2.063075072032E+01 2.940338217037E+01 8.883094392578E+02
 0.000000000000E+00 0.000000000000E+00 0.000000000000E+00 0.000000000000E+00 0.000000000000E+00 0.000000000000E+00 -2.725422531309E+02 2.871622818048E+02 3.856410162415E+02 -2.746231598984E+02 2.777458886558E+02 -3.935187042420E+02 0.000000000000E+00 0.000000000000E+00 0.000000000000E+00 0.000000000000E+00 0.000000000000E+00 0.000000000000E+00 -1.643996825864E+01 1.539199034784E+01 -6.110233895348E+01 1.835382869894E+02 -1.784011585388E+01 -1.162064865702E+01 -6.449635622837E-01 -3.586732550368E-01 1.641768975150E-01 -6.235184454615E-01 -1.047221938883E-01 2.244113460036E-02 0.000000000000E+00 0.000000000000E+00 0.000000000000E+00 0.000000000000E+00 0.000000000000E+00 0.000000000000E+00 8.720407510643E+00 1.535230280163E+01 -5.159311781733E+01 4.735191433047E+02
 0.000000000000E+00 0.000000000000E+00 0.000000000000E+00 0.000000000000E+00 0.000000000000E+00 0.000000000000E+00 2.864368382040E+02 -3.017186325412E+02 -4.058196079444E+02 2.783229597559E+02 -2.821184161929E+02 3.988400547861E+02 0.000000000000E+00 0.000000000000E+00 0.000000000000E+00 0.000000000000E+00 0.000000000000E+00 0.000000000000E+00 -7.765011285595E+01 7.332670741311E+01 -9.227292555700E+01 -5.126872319070E+01 -2.685640107905E+01 1.148718297409E+02 -6.188220408070E-01 -3.664847132886E-01 1.456714383924E-01 -3.320142404860E-03 -6.709197294128E-02 -4.174298349884E-02 0.000000000000E+00 0.000000000000E+00 0.000000000000E+00 0.000000000000E+00 0.000000000000E+00 0.000000000000E+00 7.023575134231E+01 1.951705908582E+01 9.519844130644E+01 -3.272868391235E+01 5.510561857007E+02
 0.000000000000E+00 0.000000000000E+00 0.000000000000E+00 0.000000000000E+00 0.000000000000E+00 0.000000000000E+00 3.863544310206E+02 -4.054101671048E+02 -5.458324780118E+02 -3.935799701317E+02 3.984178759952E+02 -5.640761249539E+02 0.000000000000E+00 0.000000000000E+00 0.000000000000E+00 0.000000000000E+00 0.000000000000E+00 0.000000000000E+00 5.914728254908E+01 -5.577408124403E+01 9.535636306464E+01 5.124792722260E+00 -1.682442819114E+02 2.791451602186E+02 8.656822658405E-01 2.051991131076E-01 -1.488742684684E-01 -1.190028085328E-01 -8.265134945670E-02 6.824891346970E-03 0.000000000000E+00 0.000000000000E+00 0.000000000000E+00 0.000000000000E+00 0.000000000000E+00 0.000000000000E+00 7.322204203333E+01 -6.903194680475E+01 1.363812671517E+02 4.079959027278E+00 4.771422553904E+01 8.510456664608E+02
 0.000000000000E+00 0.000000000000E+00 0.000000000000E+00 0.000000000000E+00 0.000000000000E+00 0.000000000000E+00 4.999900139479E-01 -6.134975286825E-02 1.375804654637E-01 5.113192066839E-01 -2.935897221445E-01 4.669470540821E-01 0.000000000000E+00 0.000000000000E+00 0.000000000000E+00 0.000000000000E+00 0.000000000000E+00 0.000000000000E+00 -1.152431540418E-01 1.096799538748E-01 1.304781766496E-01 -4.769839854761E-02 6.668971183224E-02 5.131996518123E-01 -1.876550199594E-01 8.191301511513E-02 2.573145738982E-01 -1.072463139254E+03 4.351361454839E+01 2.229411700803E+02 0.000000000000E+00 0.000000000000E+00 0.000000000000E+00 0.000000000000E+00 0.000000000000E+00 0.000000000000E+00 -2.474405764391E-01 7.462806152293E-02 6.539184199886E-02 1.034988503299E-01 1.756871642837E-01 -1.660061486194E-03 2.875217606570E+03
 0.000000000000E+00 0.000000000000E+00 0.000000000000E+00 0.000000000000E+00 0.000000000000E+00 0.000000000000E+00 -1.000127400011E+00 -7.436430917032E-02 1.205609795081E+00 -3.003201862719E-01 -1.957208802149E-01 -5.340064123222E-01 0.000000000000E+00 0.000000000000E+00 0.000000000000E+00 0.000000000000E+00 0.000000000000E+00 0.000000000000E+00 1.645434153922E-01 -1.576320665629E-01 -5.096415598926E-01 3.300233606404E-01 3.920097580570E-01 -6.790104890649E-01 2.215823261714E-02 1.447297816486E-01 -4.772092394958E-01 4.294928029986E+01 -1.073528635704E+00 -8.997714883440E+00 0.000000000000E+00 0.000000000000E+00 0.000000000000E+00 0.000000000000E+00 0.000000000000E+00 0.000000000000E+00 -6.305761857907E-02 -1.747953029908E-01 9.177489481356E-02 3.632448201006E-01 -1.255243227357E-01 1.293021723702E-01 -9.161723344779E+01 3.589586388690E+03
 0.000000000000E+00 0.000000000000E+00 0.000000000000E+00 0.000000000000E+00 0.000000000000E+00 0.000000000000E+00 -2.076508791267E-01 -5.004506489549E-01 -9.118467584066E-02 1.541038418126E-01 7.050707450193E-01 6.072793093962E-02 0.000000000000E+00 0.000000000000E+00 0.000000000000E+00 0.000000000000E+00 0.000000000000E+00 0.000000000000E+00 -1.569034098399E-01 1.482070775945E-01 -1.739963861610E-01 1.707961757289E-01 1.146135170901E-01 1.572293025898E-01 2.718645212797E-02 -4.667251246456E-01 -6.978161313143E-02 2.229504013586E+02 -8.943845293813E+00 -4.660914665151E+01 0.000000000000E+00 0.000000000000E+00 0.000000000000E+00 0.000000000000E+00 0.000000000000E+00 0.000000000000E+00 2.539365357709E-01 3.602625041802E-01 2.055076245695E-01 -1.185079855456E-01 -1.080951650480E-01 1.661029803111E-01 -4.993444242798E+02 6.394601065216E+02 1.377988583248E+03
 0.000000000000E+00 0.000000000000E+00 0.000000000000E+00 0.000000000000E+00 0.000000000000E+00 0.000000000000E+00 2.082220118274E+00 2.575612294040E-01 -1.853232414530E+00 3.953703990634E-01 3.156015666196E-01 4.212796319225E-01 0.000000000000E+00 0.000000000000E+00 0.000000000000E+00 0.000000000000E+00 0.000000000000E+00 0.000000000000E+00 1.885130236507E-01 -1.796463119312E-01 -2.866080945696E-01 1.271691112290E-01 -7.208290955158E-01 4.454182886566E-01 -1.113338740439E+03 8.563295540570E+01 1.879325480656E+01 -1.480893261411E+02 -3.667257371796E+02 9.099921574749E+01 0.000000000000E+00 0.000000000000E+00 0.000000000000E+00 0.000000000000E+00 0.000000000000E+00 0.000000000000E+00 -1.282591674857E-01 2.066173997327E-01 9.008285194351E-02 8.048969004754E-01 8.835969419650E-01 -6.999717570260E-01 7.503519641938E-01 -2.997458287157E-01 -3.116428301495E-01 3.625158574193E+03
 0.000000000000E+00 0.000000000000E+00 0.000000000000E+00 0.000000000000E+00 0.000000000000E+00 0.000000000000E+00 -2.801331234814E-01 -4.297060346886E-01 8.774801217409E-01 -3.348125811029E-01 -7.114032211105E-01 -3.837958660428E-01 0.000000000000E+00 0.000000000000E+00 0.000000000000E+00 0.000000000000E+00 0.000000000000E+00 0.000000000000E+00 3.138253559472E-01 -2.972769216975E-01 8.311393355523E-02 4.532686064048E-01 -2.519800572401E-01 -3.610282699522E-01 8.675572349875E+01 -6.833556831677E+00 -1.411273584603E+00 -3.674148700996E+02 -9.163195452415E+02 2.276613368582E+02 0.000000000000E+00 0.000000000000E+00 0.000000000000E+00 0.000000000000E+00 0.000000000000E+00 0.000000000000E+00 4.784969124462E-01 1.134917136010E-01 -2.212374028372E-01 -1.743591039728E-01 -4.144367062805E-01 4.497877409246E-01 -1.238394307376E-01 -7.750282604305E-01 3.193355169015E-02 -8.098643596860E+02 2.703718405653E+03
 0.000000000000E+00 0.000000000000E+00 0.000000000000E+00 0.000000000000E+00 0.000000000000E+00 0.000000000000E+00 -1.160813382636E-01 -1.533146123733E-01 -7.239570242893E-01 -9.953083467471E-02 4.146403072149E-02 -4.191254298651E-01 0.000000000000E+00 0.000000000000E+00 0.000000000000E+00 0.000000000000E+00 0.000000000000E+00 0.000000000000E+00 -2.309139968889E-01 2.186738844366E-01 -8.112070407663E-02 -1.448351602910E-01 1.032518476976E-01 -1.325120499244E-01 1.895035409404E+01 -9.030334817977E-01 -1.825133221550E-01 9.170256493337E+01 2.279774748470E+02 -5.640239100591E+01 0.000000000000E+00 0.000000000000E+00 0.000000000000E+00 0.000000000000E+00 0.000000000000E+00 0.000000000000E+00 7.917119414760E-03 -7.015839831814E-02 -3.026864489847E-03 2.107240523938E-01 1.325401788483E-01 -3.323749340295E-01 2.634409529706E-01 -9.102990912115E-01 -2.003418357558E-01 7.525791919300E+02 -3.339529900028E+02 1.514115235474E+03
 0.000000000000E+00 0.000000000000E+00 0.000000000000E+00 0.000000000000E+00 0.000000000000E+00 0.000000000000E+00 0.000000000000E+00 0.000000000000E+00 0.000000000000E+00 0.000000000000E+00 0.000000000000E+00 0.000000000000E+00 0.000000000000E+00 0.000000000000E+00 0.000000000000E+00 0.000000000000E+00 0.000000000000E+00 0.000000000000E+00 0.000000000000E+00 0.000000000000E+00 0.000000000000E+00 0.000000000000E+00 0.000000000000E+00 0.000000000000E+00 0.000000000000E+00 0.000000000000E+00 0.000000000000E+00 0.000000000000E+00 0.000000000000E+00 0.000000000000E+00 0.000000000000E+00 0.000000000000E+00 0.000000000000E+00 0.000000000000E+00 0.000000000000E+00 0.000000000000E+00 0.000000000000E+00 0.000000000000E+00 0.000000000000E+00 0.000000000000E+00 0.000000000000E+00 0.000000000000E+00 0.000000000000E+00 0.000000000000E+00 0.000000000000E+00 0.000000000000E+00 0.000000000000E+00 0.000000000000E+00 0.000000000000E+00
 0.000000000000E+00 0.000000000000E+00 0.000000000000E+00 0.000000000000E+00 0.000000000000E+00 0.000000000000E+00 0.000000000000E+00 0.000000000000E+00 0.000000000000E+00 0.000000000000E+00 0.000000000000E+00 0.000000000000E+00 0.000000000000E+00 0.000000000000E+00 0.000000000000E+00 0.000000000000E+00 0.000000000000E+00 0.000000000000E+00 0.000000000000E+00 0.000000000000E+00 0.000000000000E+00 0.000000000000E+00 0.000000000000E+00 0.000000000000E+00 0.000000000000E+00 0.000000000000E+00 0.000000000000E+00 0.000000000000E+00 0.000000000000E+00 0.000000000000E+00 0.000000000000E+00 0.000000000000E+00 0.000000000000E+00 0.000000000000E+00 0.000000000000E+00 0.000000000000E+00 0.000000000000E+00 0.000000000000E+00 0.000000000000E+00 0.000000000000E+00 0.000000000000E+00 0.000000000000E+00 0.000000000000E+00 0.000000000000E+00 0.000000000000E+00 0.000000000000E+00 0.000000000000E+00 0.000000000000E+00 0.000000000000E+00 0.000000000000E+00
 0.000000000000E+00 0.000000000000E+00 0.000000000000E+00 0.000000000000E+00 0.000000000000E+00 0.000000000000E+00 0.000000000000E+00 0.000000000000E+00 0.000000000000E+00 0.000000000000E+00 0.000000000000E+00 0.000000000000E+00 0.000000000000E+00 0.000000000000E+00 0.000000000000E+00 0.000000000000E+00 0.000000000000E+00 0.000000000000E+00 0.000000000000E+00 0.000000000000E+00 0.000000000000E+00 0.000000000000E+00 0.000000000000E+00 0.000000000000E+00 0.000000000000E+00 0.000000000000E+00 0.000000000000E+00 0.000000000000E+00 0.000000000000E+00 0.000000000000E+00 0.000000000000E+00 0.000000000000E+00 0.000000000000E+00 0.000000000000E+00 0.000000000000E+00 0.000000000000E+00 0.000000000000E+00 0.000000000000E+00 0.000000000000E+00 0.000000000000E+00 0.000000000000E+00 0.000000000000E+00 0.000000000000E+00 0.000000000000E+00 0.000000000000E+00 0.000000000000E+00 0.000000000000E+00 0.000000000000E+00 0.000000000000E+00 0.000000000000E+00 0.000000000000E+00
 0.000000000000E+00 0.000000000000E+00 0.000000000000E+00 0.000000000000E+00 0.000000000000E+00 0.000000000000E+00 0.000000000000E+00 0.000000000000E+00 0.000000000000E+00 0.000000000000E+00 0.000000000000E+00 0.000000000000E+00 0.000000000000E+00 0.000000000000E+00 0.000000000000E+00 0.000000000000E+00 0.000000000000E+00 0.000000000000E+00 0.000000000000E+00 0.000000000000E+00 0.000000000000E+00 0.000000000000E+00 0.000000000000E+00 0.000000000000E+00 0.000000000000E+00 0.000000000000E+00 0.000000000000E+00 0.000000000000E+00 0.000000000000E+00 0.000000000000E+00 0.000000000000E+00 0.000000000000E+00 0.000000000000E+00 0.000000000000E+00 0.000000000000E+00 0.000000000000E+00 0.000000000000E+00 0.000000000000E+00 0.000000000000E+00 0.000000000000E+00 0.000000000000E+00 0.000000000000E+00 0.000000000000E+00 0.000000000000E+00 0.000000000000E+00 0.000000000000E+00 0.000000000000E+00 0.000000000000E+00 0.000000000000E+00 0.000000000000E+00 0.000000000000E+00 0.000000000000E+00
 0.000000000000E+00 0.000000000000E+00 0.000000000000E+00 0.000000000000E+00 0.000000000000E+00 0.000000000000E+00 0.000000000000E+00 0.000000000000E+00 0.000000000000E+00 0.000000000000E+00 0.000000000000E+00 0.000000000000E+00 0.000000000000E+00 0.000000000000E+00 0.000000000000E+00 0.000000000000E+00 0.000000000000E+00 0.000000000000E+00 0.000000000000E+00 0.000000000000E+00 0.000000000000E+00 0.000000000000E+00 0.000000000000E+00 0.000000000000E+00 0.000000000000E+00 0.000000000000E+00 0.000000000000E+00 0.000000000000E+00 0.000000000000E+00 0.000000000000E+00 0.000000000000E+00 0.000000000000E+00 0.000000000000E+00 0.000000000000E+00 0.000000000000E+00 0.000000000000E+00 0.000000000000E+00 0.000000000000E+00 0.000000000000E+00 0.000000000000E+00 0.000000000000E+00 0.000000000000E+00 0.000000000000E+00 0.000000000000E+00 0.000000000000E+00 0.000000000000E+00 0.000000000000E+00 0.000000000000E+00 0.000000000000E+00 0.000000000000E+00 0.000000000000E+00 0.000000000000E+00 0.000000000000E+00
 0.000000000000E+00 0.000000000000E+00 0.000000000000E+00 0.000000000000E+00 0.000000000000E+00 0.000000000000E+00 0.000000000000E+00 0.000000000000E+00 0.000000000000E+00 0.000000000000E+00 0.000000000000E+00 0.000000000000E+00 0.000000000000E+00 0.000000000000E+00 0.000000000000E+00 0.000000000000E+00 0.000000000000E+00 0.000000000000E+00 0.000000000000E+00 0.000000000000E+00 0.000000000000E+00 0.000000000000E+00 0.000000000000E+00 0.000000000000E+00 0.000000000000E+00 0.000000000000E+00 0.000000000000E+00 0.000000000000E+00 0.000000000000E+00 0.000000000000E+00 0.000000000000E+00 0.000000000000E+00 0.000000000000E+00 0.000000000000E+00 0.000000000000E+00 0.000000000000E+00 0.000000000000E+00 0.000000000000E+00 0.000000000000E+00 0.000000000000E+00 0.000000000000E+00 0.000000000000E+00 0.000000000000E+00 0.000000000000E+00 0.000000000000E+00 0.000000000000E+00 0.000000000000E+00 0.000000000000E+00 0.000000000000E+00 0.000000000000E+00 0.000000000000E+00 0.000000000000E+00 0.000000000000E+00 0.000000000000E+00