#BIOSYM hessian 1
@Type: Hessian Update
@Units
 distance: 	A
 energy: 	Kcal/Mol
#header
@natom 88

#label
P1      P2      P3      P4      P5      P6      P7      P8      A9      A10     A11     A12     A13     A14     A15     A16     A17     A18     A19     A20     O21     O22     P23     P24     P25     P26     P27     P28     P29     P30     A31     A32     A33     A34     A35     A36     A37     A38     A39     A40     A41     A42     O43     O44     P45     P46     P47     P48     P49     P50     P51     P52     A53     A54     A55     A56     A57     A58     A59     A60     A61     A62     A63     A64     O65     O66     P67     P68     P69     P70     P71     P72     P73     P74     A75     A76     A77     A78     A79     A80     A81     A82     A83     A84     A85     A86     O87     O88

#element
Pd Pd Pd Pd Pd Pd Pd Pd Ag Ag Ag Ag Ag Ag Ag Ag Ag Ag Ag Ag O  O  Pd Pd Pd Pd Pd Pd Pd Pd Ag Ag Ag Ag Ag Ag Ag Ag Ag Ag Ag Ag O  O  Pd Pd Pd Pd Pd Pd Pd Pd Ag Ag Ag Ag Ag Ag Ag Ag Ag Ag Ag Ag O  O  Pd Pd Pd Pd Pd Pd Pd Pd Ag Ag Ag Ag Ag Ag Ag Ag Ag Ag Ag Ag O  O 

#matrix
264
 0.000000000000E+00
 0.000000000000E+00 0.000000000000E+00
 0.000000000000E+00 0.000000000000E+00 0.000000000000E+00
 0.000000000000E+00 0.000000000000E+00 0.000000000000E+00 0.000000000000E+00
 0.000000000000E+00 0.000000000000E+00 0.000000000000E+00 0.000000000000E+00 0.000000000000E+00
 0.000000000000E+00 0.000000000000E+00 0.000000000000E+00 0.000000000000E+00 0.000000000000E+00 0.000000000000E+00
 0.000000000000E+00 0.000000000000E+00 0.000000000000E+00 0.000000000000E+00 0.000000000000E+00 0.000000000000E+00 4.420976026352E+03
 0.000000000000E+00 0.000000000000E+00 0.000000000000E+00 0.000000000000E+00 0.000000000000E+00 0.000000000000E+00 -3.849213009769E+01 4.419772771199E+03
 0.000000000000E+00 0.000000000000E+00 0.000000000000E+00 0.000000000000E+00 0.000000000000E+00 0.000000000000E+00 -8.746105340176E-01 3.034523505594E+00 4.603649532837E+03
 0.000000000000E+00 0.000000000000E+00 0.000000000000E+00 0.000000000000E+00 0.000000000000E+00 0.000000000000E+00 -9.572333517295E-01 2.342329035367E+00 -7.551133202370E-01 4.420600794647E+03
 0.000000000000E+00 0.000000000000E+00 0.000000000000E+00 0.000000000000E+00 0.000000000000E+00 0.000000000000E+00 -1.019195524717E+00 2.590515011788E-01 -4.327033003980E+00 -3.871520598889E+01 4.419814910670E+03
 0.000000000000E+00 0.000000000000E+00 0.000000000000E+00 0.000000000000E+00 0.000000000000E+00 0.000000000000E+00 2.268209750173E-01 -2.983190593034E+00 -3.965392194748E-01 -7.089391899247E-01 3.794745080238E-01 4.603896821442E+03
 0.000000000000E+00 0.000000000000E+00 0.000000000000E+00 0.000000000000E+00 0.000000000000E+00 0.000000000000E+00 0.000000000000E+00 0.000000000000E+00 0.000000000000E+00 0.000000000000E+00 0.000000000000E+00 0.000000000000E+00 0.000000000000E+00
 0.000000000000E+00 0.000000000000E+00 0.000000000000E+00 0.000000000000E+00 0.000000000000E+00 0.000000000000E+00 0.000000000000E+00 0.000000000000E+00 0.000000000000E+00 0.000000000000E+00 0.000000000000E+00 0.000000000000E+00 0.000000000000E+00 0.000000000000E+00
 0.000000000000E+00 0.000000000000E+00 0.000000000000E+00 0.000000000000E+00 0.000000000000E+00 0.000000000000E+00 0.000000000000E+00 0.000000000000E+00 0.000000000000E+00 0.000000000000E+00 0.000000000000E+00 0.000000000000E+00 0.000000000000E+00 0.000000000000E+00 0.000000000000E+00
 0.000000000000E+00 0.000000000000E+00 0.000000000000E+00 0.000000000000E+00 0.000000000000E+00 0.000000000000E+00 0.000000000000E+00 0.000000000000E+00 0.000000000000E+00 0.000000000000E+00 0.000000000000E+00 0.000000000000E+00 0.000000000000E+00 0.000000000000E+00 0.000000000000E+00 0.000000000000E+00
 0.000000000000E+00 0.000000000000E+00 0.000000000000E+00 0.000000000000E+00 0.000000000000E+00 0.000000000000E+00 0.000000000000E+00 0.000000000000E+00 0.000000000000E+00 0.000000000000E+00 0.000000000000E+00 0.000000000000E+00 0.000000000000E+00 0.000000000000E+00 0.000000000000E+00 0.000000000000E+00 0.000000000000E+00
 0.000000000000E+00 0.000000000000E+00 0.000000000000E+00 0.000000000000E+00 0.000000000000E+00 0.000000000000E+00 0.000000000000E+00 0.000000000000E+00 0.000000000000E+00 0.000000000000E+00 0.000000000000E+00 0.000000000000E+00 0.000000000000E+00 0.000000000000E+00 0.000000000000E+00 0.000000000000E+00 0.000000000000E+00 0.000000000000E+00
 0.000000000000E+00 0.000000000000E+00 0.000000000000E+00 0.000000000000E+00 0.000000000000E+00 0.000000000000E+00 -2.782968228303E+02 -2.827262982107E+02 -3.940102107236E+02 -4.364171364647E-01 7.490967263262E-01 1.298832823930E-01 0.000000000000E+00 0.000000000000E+00 0.000000000000E+00 0.000000000000E+00 0.000000000000E+00 0.000000000000E+00 3.975500087363E+02
 0.000000000000E+00 0.000000000000E+00 0.000000000000E+00 0.000000000000E+00 0.000000000000E+00 0.000000000000E+00 -2.808249293511E+02 -2.858227028916E+02 -3.984431398868E+02 -4.749448964391E-01 1.034192435616E+00 -3.274969141063E-02 0.000000000000E+00 0.000000000000E+00 0.000000000000E+00 0.000000000000E+00 0.000000000000E+00 0.000000000000E+00 -5.620794383522E-01 3.975753326141E+02
 0.000000000000E+00 0.000000000000E+00 0.000000000000E+00 0.000000000000E+00 0.000000000000E+00 0.000000000000E+00 -3.942754663980E+02 -3.990229599411E+02 -5.573712746135E+02 -2.309768118612E-01 2.545718906078E-01 -1.381118235202E-02 0.000000000000E+00 0.000000000000E+00 0.000000000000E+00 0.000000000000E+00 0.000000000000E+00 0.000000000000E+00 4.084145141484E-02 -3.083371952613E-02 6.451797295532E+02
 0.000000000000E+00 0.000000000000E+00 0.000000000000E+00 0.000000000000E+00 0.000000000000E+00 0.000000000000E+00 -2.784862348909E+02 -2.815430477797E+02 3.941179838275E+02 9.092473548653E-01 -1.042416824967E-01 1.125428634081E-01 0.000000000000E+00 0.000000000000E+00 0.000000000000E+00 0.000000000000E+00 0.000000000000E+00 0.000000000000E+00 4.655200543996E+01 -3.580304809919E+00 -2.647706111506E+01 3.975814320417E+02
 0.000000000000E+00 0.000000000000E+00 0.000000000000E+00 0.000000000000E+00 0.000000000000E+00 0.000000000000E+00 -2.818251050437E+02 -2.838137908427E+02 3.976924980967E+02 8.208334565117E-03 -1.390208170490E+00 -1.295954250754E-01 0.000000000000E+00 0.000000000000E+00 0.000000000000E+00 0.000000000000E+00 0.000000000000E+00 0.000000000000E+00 -3.678577888468E+00 4.657157688317E+01 -2.624506813446E+01 -7.941572825040E-01 3.977838358249E+02
 0.000000000000E+00 0.000000000000E+00 0.000000000000E+00 0.000000000000E+00 0.000000000000E+00 0.000000000000E+00 3.950352523403E+02 3.976677444762E+02 -5.578960126698E+02 -6.287345297547E-01 2.419433356722E-01 -5.356487710423E-01 0.000000000000E+00 0.000000000000E+00 0.000000000000E+00 0.000000000000E+00 0.000000000000E+00 0.000000000000E+00 2.602929612095E+01 2.689011201804E+01 8.291548480584E+01 2.690472888462E-02 -1.839629323407E-02 6.449575283924E+02
 0.000000000000E+00 0.000000000000E+00 0.000000000000E+00 0.000000000000E+00 0.000000000000E+00 0.000000000000E+00 -2.539275758217E+02 -2.622893667760E+02 3.923923920510E+02 -2.967191149608E+00 1.381250209390E+00 2.335706403041E+00 0.000000000000E+00 0.000000000000E+00 0.000000000000E+00 0.000000000000E+00 0.000000000000E+00 0.000000000000E+00 2.765975012608E-01 2.801817940938E-02 -1.888203568847E+00 -6.853900837773E-02 -2.392610638119E-01 2.758773092213E-02 4.248702911507E+03
 0.000000000000E+00 0.000000000000E+00 0.000000000000E+00 0.000000000000E+00 0.000000000000E+00 0.000000000000E+00 -2.621435868978E+02 -2.635318034403E+02 3.979025145866E+02 1.397439401029E+00 1.053921496245E+00 -1.730889792004E+00 0.000000000000E+00 0.000000000000E+00 0.000000000000E+00 0.000000000000E+00 0.000000000000E+00 0.000000000000E+00 3.434145031019E-01 6.897985520501E-01 -2.619370401145E+00 2.867760119274E-01 2.168521868252E-01 -2.211293364265E+00 9.324003551263E+02 4.267317393742E+03
 0.000000000000E+00 0.000000000000E+00 0.000000000000E+00 0.000000000000E+00 0.000000000000E+00 0.000000000000E+00 3.918012014958E+02 3.962704524977E+02 -6.030384667234E+02 -6.844540881428E-01 4.008484702448E-01 -3.019135296366E-01 0.000000000000E+00 0.000000000000E+00 0.000000000000E+00 0.000000000000E+00 0.000000000000E+00 0.000000000000E+00 2.569622452080E-01 4.807884366899E-01 3.352199110931E-02 -5.957151115733E-01 5.597488930209E-01 7.782652583689E-02 1.783894547211E+00 1.342815879667E+00 2.684780850078E+03
 0.000000000000E+00 0.000000000000E+00 0.000000000000E+00 0.000000000000E+00 0.000000000000E+00 0.000000000000E+00 -2.567800702063E+02 -2.581968958435E+02 -3.933009398760E+02 5.043248982897E-01 -2.407377900774E+00 8.885645301269E-01 0.000000000000E+00 0.000000000000E+00 0.000000000000E+00 0.000000000000E+00 0.000000000000E+00 0.000000000000E+00 -8.726071146156E-01 5.769161546277E-01 2.066892226692E+00 -3.460264286744E-01 7.920801402176E-02 1.594870821087E+00 -1.532134776092E+00 1.815809489147E+00 -2.179904462656E+00 4.249037006455E+03
 0.000000000000E+00 0.000000000000E+00 0.000000000000E+00 0.000000000000E+00 0.000000000000E+00 0.000000000000E+00 -2.583139220601E+02 -2.622763745703E+02 -3.966110641956E+02 -6.706793006823E-01 -3.166707523419E-01 -3.479857409897E+00 0.000000000000E+00 0.000000000000E+00 0.000000000000E+00 0.000000000000E+00 0.000000000000E+00 0.000000000000E+00 2.272708987006E-01 -5.387789229975E-01 1.041643428590E+00 -2.720920224252E-01 1.697977643909E-01 5.525359936367E-01 -9.126531625031E-01 -6.282885905798E-01 -2.937232477962E+00 9.298867071556E+02 4.271297374524E+03
 0.000000000000E+00 0.000000000000E+00 0.000000000000E+00 0.000000000000E+00 0.000000000000E+00 0.000000000000E+00 -3.942160823802E+02 -3.959247752178E+02 -6.007287288093E+02 7.600232450159E-01 9.913229534739E-02 2.439185706127E-01 0.000000000000E+00 0.000000000000E+00 0.000000000000E+00 0.000000000000E+00 0.000000000000E+00 0.000000000000E+00 -7.138514678593E-01 5.269618297255E-02 8.298735072896E-02 2.382148764405E-01 -3.399157791884E-01 -1.061418859952E-01 2.318994195755E+00 1.604351544176E+00 -1.840974082517E-01 -1.027977313576E-01 -2.246671512543E+00 2.683177930813E+03
 0.000000000000E+00 0.000000000000E+00 0.000000000000E+00 0.000000000000E+00 0.000000000000E+00 0.000000000000E+00 0.000000000000E+00 0.000000000000E+00 0.000000000000E+00 0.000000000000E+00 0.000000000000E+00 0.000000000000E+00 0.000000000000E+00 0.000000000000E+00 0.000000000000E+00 0.000000000000E+00 0.000000000000E+00 0.000000000000E+00 0.000000000000E+00 0.000000000000E+00 0.000000000000E+00 0.000000000000E+00 0.000000000000E+00 0.000000000000E+00 0.000000000000E+00 0.000000000000E+00 0.000000000000E+00 0.000000000000E+00 0.000000000000E+00 0.000000000000E+00 0.000000000000E+00
 0.000000000000E+00 0.000000000000E+00 0.000000000000E+00 0.000000000000E+00 0.000000000000E+00 0.000000000000E+00 0.000000000000E+00 0.000000000000E+00 0.000000000000E+00 0.000000000000E+00 0.000000000000E+00 0.000000000000E+00 0.000000000000E+00 0.000000000000E+00 0.000000000000E+00 0.000000000000E+00 0.000000000000E+00 0.000000000000E+00 0.000000000000E+00 0.000000000000E+00 0.000000000000E+00 0.000000000000E+00 0.000000000000E+00 0.000000000000E+00 0.000000000000E+00 0.000000000000E+00 0.000000000000E+00 0.000000000000E+00 0.000000000000E+00 0.000000000000E+00 0.000000000000E+00 0.000000000000E+00
 0.000000000000E+00 0.000000000000E+00 0.000000000000E+00 0.000000000000E+00 0.000000000000E+00 0.000000000000E+00 0.000000000000E+00 0.000000000000E+00 0.000000000000E+00 0.000000000000E+00 0.000000000000E+00 0.000000000000E+00 0.000000000000E+00 0.000000000000E+00 0.000000000000E+00 0.000000000000E+00 0.000000000000E+00 0.000000000000E+00 0.000000000000E+00 0.000000000000E+00 0.000000000000E+00 0.000000000000E+00 0.000000000000E+00 0.000000000000E+00 0.000000000000E+00 0.000000000000E+00 0.000000000000E+00 0.000000000000E+00 0.000000000000E+00 0.000000000000E+00 0.000000000000E+00 0.000000000000E+00 0.000000000000E+00
 0.000000000000E+00 0.000000000000E+00 0.000000000000E+00 0.000000000000E+00 0.000000000000E+00 0.000000000000E+00 0.000000000000E+00 0.000000000000E+00 0.000000000000E+00 0.000000000000E+00 0.000000000000E+00 0.000000000000E+00 0.000000000000E+00 0.000000000000E+00 0.000000000000E+00 0.000000000000E+00 0.000000000000E+00 0.000000000000E+00 0.000000000000E+00 0.000000000000E+00 0.000000000000E+00 0.000000000000E+00 0.000000000000E+00 0.000000000000E+00 0.000000000000E+00 0.000000000000E+00 0.000000000000E+00 0.000000000000E+00 0.000000000000E+00 0.000000000000E+00 0.000000000000E+00 0.000000000000E+00 0.000000000000E+00 0.000000000000E+00
 0.000000000000E+00 0.000000000000E+00 0.000000000000E+00 0.000000000000E+00 0.000000000000E+00 0.000000000000E+00 0.000000000000E+00 0.000000000000E+00 0.000000000000E+00 0.000000000000E+00 0.000000000000E+00 0.000000000000E+00 0.000000000000E+00 0.000000000000E+00 0.000000000000E+00 0.000000000000E+00 0.000000000000E+00 0.000000000000E+00 0.000000000000E+00 0.000000000000E+00 0.000000000000E+00 0.000000000000E+00 0.000000000000E+00 0.000000000000E+00 0.000000000000E+00 0.000000000000E+00 0.000000000000E+00 0.000000000000E+00 0.000000000000E+00 0.000000000000E+00 0.000000000000E+00 0.000000000000E+00 0.000000000000E+00 0.000000000000E+00 0.000000000000E+00
 0.000000000000E+00 0.000000000000E+00 0.000000000000E+00 0.000000000000E+00 0.000000000000E+00 0.000000000000E+00 0.000000000000E+00 0.000000000000E+00 0.000000000000E+00 0.000000000000E+00 0.000000000000E+00 0.000000000000E+00 0.000000000000E+00 0.000000000000E+00 0.000000000000E+00 0.000000000000E+00 0.000000000000E+00 0.000000000000E+00 0.000000000000E+00 0.000000000000E+00 0.000000000000E+00 0.000000000000E+00 0.000000000000E+00 0.000000000000E+00 0.000000000000E+00 0.000000000000E+00 0.000000000000E+00 0.000000000000E+00 0.000000000000E+00 0.000000000000E+00 0.000000000000E+00 0.000000000000E+00 0.000000000000E+00 0.000000000000E+00 0.000000000000E+00 0.000000000000E+00
 0.000000000000E+00 0.000000000000E+00 0.000000000000E+00 0.000000000000E+00 0.000000000000E+00 0.000000000000E+00 -2.879012749459E+02 2.836528853032E+02 -3.976848111568E+02 3.876626970216E-01 2.108638814548E+00 2.918043436529E-01 0.000000000000E+00 0.000000000000E+00 0.000000000000E+00 0.000000000000E+00 0.000000000000E+00 0.000000000000E+00 1.683283284866E+02 1.282340955293E+00 -5.685968920380E-01 1.191952808713E+01 -1.989454460009E+00 1.142670709167E+02 -7.537441667339E-02 -7.281607154760E-01 -1.798709124922E-02 -6.602593612695E-01 1.360454884144E-01 6.061754969448E-01 0.000000000000E+00 0.000000000000E+00 0.000000000000E+00 0.000000000000E+00 0.000000000000E+00 0.000000000000E+00 3.970222274191E+02
 0.000000000000E+00 0.000000000000E+00 0.000000000000E+00 0.000000000000E+00 0.000000000000E+00 0.000000000000E+00 2.846540921525E+02 -2.814547298749E+02 3.939766333367E+02 -7.101112255625E-01 -4.285195790596E-01 -7.375394788774E-01 0.000000000000E+00 0.000000000000E+00 0.000000000000E+00 0.000000000000E+00 0.000000000000E+00 0.000000000000E+00 -3.596748105277E-01 1.213658027919E+01 -1.147708556287E+02 -3.863546799253E-01 1.684266469566E+02 1.971008422301E+00 -8.459823242976E-02 -1.270869999372E-01 -1.041184323642E-01 -9.691385638363E-02 1.791631166788E-01 3.402800616548E-01 0.000000000000E+00 0.000000000000E+00 0.000000000000E+00 0.000000000000E+00 0.000000000000E+00 0.000000000000E+00 -4.207027980953E-01 3.975886950756E+02
 0.000000000000E+00 0.000000000000E+00 0.000000000000E+00 0.000000000000E+00 0.000000000000E+00 0.000000000000E+00 -3.977890489561E+02 3.929856337797E+02 -5.501978134160E+02 1.603089343622E+00 -5.871711603200E-01 -4.582306882702E-01 0.000000000000E+00 0.000000000000E+00 0.000000000000E+00 0.000000000000E+00 0.000000000000E+00 0.000000000000E+00 -3.594872137921E+00 1.144671792687E+02 2.401403154956E+02 -1.145349915276E+02 2.214892457387E+00 2.398956528310E+02 -1.356175001961E+00 -1.156971826554E+00 8.359185603146E-01 2.173310727816E+00 3.925191158830E-01 -1.534147709077E-01 0.000000000000E+00 0.000000000000E+00 0.000000000000E+00 0.000000000000E+00 0.000000000000E+00 0.000000000000E+00 -3.845874829480E-01 2.583299619433E-01 6.443295576114E+02
 0.000000000000E+00 0.000000000000E+00 0.000000000000E+00 0.000000000000E+00 0.000000000000E+00 0.000000000000E+00 -2.874840971307E+02 2.843183186154E+02 3.976941511791E+02 -2.877524885208E+02 2.837643498709E+02 -3.979528058622E+02 0.000000000000E+00 0.000000000000E+00 0.000000000000E+00 0.000000000000E+00 0.000000000000E+00 0.000000000000E+00 1.203633626957E+01 -2.078899051900E+00 -1.144555534474E+02 1.684279647386E+02 1.065503312802E+00 8.230894075694E-01 1.797210323412E-02 5.311912223886E-01 5.547778055231E-01 -2.474098124425E-01 1.944788790654E-02 4.768864190431E-01 0.000000000000E+00 0.000000000000E+00 0.000000000000E+00 0.000000000000E+00 0.000000000000E+00 0.000000000000E+00 4.662704041570E+01 2.886983440075E+00 -2.637955139453E+01 3.971110278472E+02
 0.000000000000E+00 0.000000000000E+00 0.000000000000E+00 0.000000000000E+00 0.000000000000E+00 0.000000000000E+00 2.846544558920E+02 -2.822879479017E+02 -3.937258965156E+02 2.847417009022E+02 -2.813347142035E+02 3.942498810569E+02 0.000000000000E+00 0.000000000000E+00 0.000000000000E+00 0.000000000000E+00 0.000000000000E+00 0.000000000000E+00 -3.544069883351E-01 1.685809011664E+02 -1.782267761955E+00 -4.372803817630E-01 1.204629009528E+01 1.145474924756E+02 1.335025713196E-01 2.057152794920E-01 -1.107913654907E-01 2.941556743122E-01 -4.462536010012E-01 2.472743822131E-01 0.000000000000E+00 0.000000000000E+00 0.000000000000E+00 0.000000000000E+00 0.000000000000E+00 0.000000000000E+00 2.709372006917E+00 4.653586643382E+01 2.643137919860E+01 -7.379343325544E-01 3.971597343801E+02
 0.000000000000E+00 0.000000000000E+00 0.000000000000E+00 0.000000000000E+00 0.000000000000E+00 0.000000000000E+00 3.970959700402E+02 -3.936783061571E+02 -5.514516889102E+02 -3.975471155969E+02 3.945399158026E+02 -5.513673807239E+02 0.000000000000E+00 0.000000000000E+00 0.000000000000E+00 0.000000000000E+00 0.000000000000E+00 0.000000000000E+00 1.149652971053E+02 -2.092887592106E+00 2.400276881271E+02 3.362470177925E+00 -1.148515745827E+02 2.397960608787E+02 -2.228123453415E-01 -7.986352946354E-01 -2.541137340535E-01 6.760266524489E-01 1.812117734163E+00 6.687213416343E-01 0.000000000000E+00 0.000000000000E+00 0.000000000000E+00 0.000000000000E+00 0.000000000000E+00 0.000000000000E+00 2.665562340010E+01 -2.614972552098E+01 8.250933540974E+01 1.673697427912E-01 -4.208863357817E-01 6.445898393938E+02
 0.000000000000E+00 0.000000000000E+00 0.000000000000E+00 0.000000000000E+00 0.000000000000E+00 0.000000000000E+00 -2.695797213096E+02 2.654415855709E+02 3.973257703530E+02 -4.773388602951E-01 -2.033966842111E+00 -1.294859027843E-01 0.000000000000E+00 0.000000000000E+00 0.000000000000E+00 0.000000000000E+00 0.000000000000E+00 0.000000000000E+00 -2.189722272740E-01 4.378921801405E-01 -1.642691622709E-01 6.633596842101E-02 -1.072134965878E+00 -3.360540513001E+00 -1.690238229631E+00 9.283922624538E+00 5.436624816607E-01 -1.119605525830E+03 1.122316460863E+00 -7.762785770393E+00 0.000000000000E+00 0.000000000000E+00 0.000000000000E+00 0.000000000000E+00 0.000000000000E+00 0.000000000000E+00 -3.537955191516E-02 -7.688009379157E-01 -1.272119561425E+00 6.405864594890E-01 3.769906001228E-02 -1.619515906033E+00 4.278748470487E+03
 0.000000000000E+00 0.000000000000E+00 0.000000000000E+00 0.000000000000E+00 0.000000000000E+00 0.000000000000E+00 2.665926540424E+02 -2.614811486324E+02 -3.942700452796E+02 -1.342605493406E+00 -1.181059659167E+00 -5.412479957828E-01 0.000000000000E+00 0.000000000000E+00 0.000000000000E+00 0.000000000000E+00 0.000000000000E+00 0.000000000000E+00 -4.120004599972E-01 -3.642731118588E-03 1.207927831758E+00 5.960768179061E-01 -3.102945451607E-01 2.097214993871E+00 1.395926818613E+01 -1.120332423807E+03 9.461879282183E+00 -1.737152048252E+00 -6.389931011494E-02 -6.032830109552E-01 0.000000000000E+00 0.000000000000E+00 0.000000000000E+00 0.000000000000E+00 0.000000000000E+00 0.000000000000E+00 -1.311853329670E-01 -8.329094978048E-02 1.188705422922E+00 -1.912820842690E-01 2.010438028772E-02 1.700766187768E+00 -9.865954122119E+02 4.257812446375E+03
 0.000000000000E+00 0.000000000000E+00 0.000000000000E+00 0.000000000000E+00 0.000000000000E+00 0.000000000000E+00 3.983331112725E+02 -3.927377638156E+02 -5.908254721713E+02 -1.748804884451E+00 -5.337561762800E-01 -1.222967820486E-01 0.000000000000E+00 0.000000000000E+00 0.000000000000E+00 0.000000000000E+00 0.000000000000E+00 0.000000000000E+00 2.545290725527E-01 2.117885035422E-01 -1.120427523715E+00 -3.565983737057E-01 4.655019433829E-01 1.629024404438E+00 2.696165200348E+00 8.198099747236E+00 1.297838338006E+00 -9.270576270815E+00 -4.222702425596E-01 2.434389248553E-02 0.000000000000E+00 0.000000000000E+00 0.000000000000E+00 0.000000000000E+00 0.000000000000E+00 0.000000000000E+00 2.999199926852E-01 1.328990671145E-01 -9.520016030450E-02 2.637425521436E-01 7.595631344897E-02 5.168044937284E-03 2.761542076405E+00 -1.371575511012E+00 2.670322029105E+03
 0.000000000000E+00 0.000000000000E+00 0.000000000000E+00 0.000000000000E+00 0.000000000000E+00 0.000000000000E+00 -2.670334254894E+02 2.659156123651E+02 -3.991825554370E+02 -2.671771197358E+02 2.677923015395E+02 3.970308127964E+02 0.000000000000E+00 0.000000000000E+00 0.000000000000E+00 0.000000000000E+00 0.000000000000E+00 0.000000000000E+00 3.618958045409E-01 8.420531029167E-02 2.895842740314E-01 -3.108267954784E-01 1.777869269176E-01 1.011360623373E+00 -1.121238453564E+03 1.782015996812E+00 6.988902349134E+00 1.158625498543E+00 9.398846319354E+00 -7.162236541870E-01 0.000000000000E+00 0.000000000000E+00 0.000000000000E+00 0.000000000000E+00 0.000000000000E+00 0.000000000000E+00 1.841658832943E-01 4.595512339900E-01 1.399305068795E+00 7.195064196723E-02 -2.682697866781E-01 1.844153448945E+00 1.283967273342E+00 -7.793368167777E-01 -2.831734520570E+00 4.278762408124E+03
 0.000000000000E+00 0.000000000000E+00 0.000000000000E+00 0.000000000000E+00 0.000000000000E+00 0.000000000000E+00 2.647355895725E+02 -2.601952715000E+02 3.920798594086E+02 2.679598723038E+02 -2.597709300426E+02 -3.945619813846E+02 0.000000000000E+00 0.000000000000E+00 0.000000000000E+00 0.000000000000E+00 0.000000000000E+00 0.000000000000E+00 -1.811585994127E-01 -2.159440630266E-01 9.088471322407E-01 -4.710225258375E-01 9.259834317435E-02 -1.399284815696E+00 -1.800455507899E+00 -1.471590476043E-01 2.299388505817E+00 1.158690030086E+01 -1.120122276534E+03 -6.792759273015E+00 0.000000000000E+00 0.000000000000E+00 0.000000000000E+00 0.000000000000E+00 0.000000000000E+00 0.000000000000E+00 7.559175102476E-01 2.932452339263E-01 7.411128791259E-02 -1.226333429656E-01 3.280452034579E-01 -1.922024901209E+00 2.565052841499E+00 9.596298840210E-01 4.494202008652E+00 -9.875662125340E+02 4.256202529718E+03
 0.000000000000E+00 0.000000000000E+00 0.000000000000E+00 0.000000000000E+00 0.000000000000E+00 0.000000000000E+00 -3.962203824660E+02 3.941300640704E+02 -5.906762969869E+02 3.977982798730E+02 -3.928931164292E+02 -5.902667688347E+02 0.000000000000E+00 0.000000000000E+00 0.000000000000E+00 0.000000000000E+00 0.000000000000E+00 0.000000000000E+00 -7.390466460795E-01 -6.213113843487E-02 -5.781020991823E-01 2.623388116078E-01 2.894767908227E-01 -8.524221512672E-01 7.134309302323E+00 3.151181907935E+00 9.832189467421E-01 -7.956005020706E-01 -7.559329546302E+00 8.924971844473E-01 0.000000000000E+00 0.000000000000E+00 0.000000000000E+00 0.000000000000E+00 0.000000000000E+00 0.000000000000E+00 -3.265631256112E-01 6.087693031478E-02 -2.404145168133E-01 -8.155892293019E-02 8.479555976127E-03 -4.638948981339E-02 1.769540394040E+00 -2.001257802084E+00 4.520230410619E-01 -1.291950161238E+00 3.970205576183E-01 2.670862376205E+03
 0.000000000000E+00 0.000000000000E+00 0.000000000000E+00 0.000000000000E+00 0.000000000000E+00 0.000000000000E+00 0.000000000000E+00 0.000000000000E+00 0.000000000000E+00 0.000000000000E+00 0.000000000000E+00 0.000000000000E+00 0.000000000000E+00 0.000000000000E+00 0.000000000000E+00 0.000000000000E+00 0.000000000000E+00 0.000000000000E+00 0.000000000000E+00 0.000000000000E+00 0.000000000000E+00 0.000000000000E+00 0.000000000000E+00 0.000000000000E+00 0.000000000000E+00 0.000000000000E+00 0.000000000000E+00 0.000000000000E+00 0.000000000000E+00 0.000000000000E+00 0.000000000000E+00 0.000000000000E+00 0.000000000000E+00 0.000000000000E+00 0.000000000000E+00 0.000000000000E+00 0.000000000000E+00 0.000000000000E+00 0.000000000000E+00 0.000000000000E+00 0.000000000000E+00 0.000000000000E+00 0.000000000000E+00 0.000000000000E+00 0.000000000000E+00 0.000000000000E+00 0.000000000000E+00 0.000000000000E+00 0.000000000000E+00
 0.000000000000E+00 0.000000000000E+00 0.000000000000E+00 0.000000000000E+00 0.000000000000E+00 0.000000000000E+00 0.000000000000E+00 0.000000000000E+00 0.000000000000E+00 0.000000000000E+00 0.000000000000E+00 0.000000000000E+00 0.000000000000E+00 0.000000000000E+00 0.000000000000E+00 0.000000000000E+00 0.000000000000E+00 0.000000000000E+00 0.000000000000E+00 0.000000000000E+00 0.000000000000E+00 0.000000000000E+00 0.000000000000E+00 0.000000000000E+00 0.000000000000E+00 0.000000000000E+00 0.000000000000E+00 0.000000000000E+00 0.000000000000E+00 0.000000000000E+00 0.000000000000E+00 0.000000000000E+00 0.000000000000E+00 0.000000000000E+00 0.000000000000E+00 0.000000000000E+00 0.000000000000E+00 0.000000000000E+00 0.000000000000E+00 0.000000000000E+00 0.000000000000E+00 0.000000000000E+00 0.000000000000E+00 0.000000000000E+00 0.000000000000E+00 0.000000000000E+00 0.000000000000E+00 0.000000000000E+00 0.000000000000E+00 0.000000000000E+00
 0.000000000000E+00 0.000000000000E+00 0.000000000000E+00 0.000000000000E+00 0.000000000000E+00 0.000000000000E+00 0.000000000000E+00 0.000000000000E+00 0.000000000000E+00 0.000000000000E+00 0.000000000000E+00 0.000000000000E+00 0.000000000000E+00 0.000000000000E+00 0.000000000000E+00 0.000000000000E+00 0.000000000000E+00 0.000000000000E+00 0.000000000000E+00 0.000000000000E+00 0.000000000000E+00 0.000000000000E+00 0.000000000000E+00 0.000000000000E+00 0.000000000000E+00 0.000000000000E+00 0.000000000000E+00 0.000000000000E+00 0.000000000000E+00 0.000000000000E+00 0.000000000000E+00 0.000000000000E+00 0.000000000000E+00 0.000000000000E+00 0.000000000000E+00 0.000000000000E+00 0.000000000000E+00 0.000000000000E+00 0.000000000000E+00 0.000000000000E+00 0.000000000000E+00 0.000000000000E+00 0.000000000000E+00 0.000000000000E+00 0.000000000000E+00 0.000000000000E+00 0.000000000000E+00 0.000000000000E+00 0.000000000000E+00 0.000000000000E+00 0.000000000000E+00
 0.000000000000E+00 0.000000000000E+00 0.000000000000E+00 0.000000000000E+00 0.000000000000E+00 0.000000000000E+00 0.000000000000E+00 0.000000000000E+00 0.000000000000E+00 0.000000000000E+00 0.000000000000E+00 0.000000000000E+00 0.000000000000E+00 0.000000000000E+00 0.000000000000E+00 0.000000000000E+00 0.000000000000E+00 0.000000000000E+00 0.000000000000E+00 0.000000000000E+00 0.000000000000E+00 0.000000000000E+00 0.000000000000E+00 0.000000000000E+00 0.000000000000E+00 0.000000000000E+00 0.000000000000E+00 0.000000000000E+00 0.000000000000E+00 0.000000000000E+00 0.000000000000E+00 0.000000000000E+00 0.000000000000E+00 0.000000000000E+00 0.000000000000E+00 0.000000000000E+00 0.000000000000E+00 0.000000000000E+00 0.000000000000E+00 0.000000000000E+00 0.000000000000E+00 0.000000000000E+00 0.000000000000E+00 0.000000000000E+00 0.000000000000E+00 0.000000000000E+00 0.000000000000E+00 0.000000000000E+00 0.000000000000E+00 0.000000000000E+00 0.000000000000E+00 0.000000000000E+00
 0.000000000000E+00 0.000000000000E+00 0.000000000000E+00 0.000000000000E+00 0.000000000000E+00 0.000000000000E+00 0.000000000000E+00 0.000000000000E+00 0.000000000000E+00 0.000000000000E+00 0.000000000000E+00 0.000000000000E+00 0.000000000000E+00 0.000000000000E+00 0.000000000000E+00 0.000000000000E+00 0.000000000000E+00 0.000000000000E+00 0.000000000000E+00 0.000000000000E+00 0.000000000000E+00 0.000000000000E+00 0.000000000000E+00 0.000000000000E+00 0.000000000000E+00 0.000000000000E+00 0.000000000000E+00 0.000000000000E+00 0.000000000000E+00 0.000000000000E+00 0.000000000000E+00 0.000000000000E+00 0.000000000000E+00 0.000000000000E+00 0.000000000000E+00 0.000000000000E+00 0.000000000000E+00 0.000000000000E+00 0.000000000000E+00 0.000000000000E+00 0.000000000000E+00 0.000000000000E+00 0.000000000000E+00 0.000000000000E+00 0.000000000000E+00 0.000000000000E+00 0.000000000000E+00 0.000000000000E+00 0.000000000000E+00 0.000000000000E+00 0.000000000000E+00 0.000000000000E+00 0.000000000000E+00
 0.000000000000E+00 0.000000000000E+00 0.000000000000E+00 0.000000000000E+00 0.000000000000E+00 0.000000000000E+00 0.000000000000E+00 0.000000000000E+00 0.000000000000E+00 0.000000000000E+00 0.000000000000E+00 0.000000000000E+00 0.000000000000E+00 0.000000000000E+00 0.000000000000E+00 0.000000000000E+00 0.000000000000E+00 0.000000000000E+00 0.000000000000E+00 0.000000000000E+00 0.000000000000E+00 0.000000000000E+00 0.000000000000E+00 0.000000000000E+00 0.000000000000E+00 0.000000000000E+00 0.000000000000E+00 0.000000000000E+00 0.000000000000E+00 0.000000000000E+00 0.000000000000E+00 0.000000000000E+00 0.000000000000E+00 0.000000000000E+00 0.000000000000E+00 0.000000000000E+00 0.000000000000E+00 0.000000000000E+00 0.000000000000E+00 0.000000000000E+00 0.000000000000E+00 0.000000000000E+00 0.000000000000E+00 0.000000000000E+00 0.000000000000E+00 0.000000000000E+00 0.000000000000E+00 0.000000000000E+00 0.000000000000E+00 0.000000000000E+00 0.000000000000E+00 0.000000000000E+00 0.000000000000E+00 0.000000000000E+00